# vtk DataFile Version 3.0 
vtk output 
ASCII 
DATASET UNSTRUCTURED_GRID 
POINTS           578 float
  1.0020E+01    0.0000E+00   -0.0000E+00
  9.9800E+00    0.0000E+00   -0.0000E+00
  3.0840E+00    0.0000E+00    9.4915E+00
  3.0964E+00    0.0000E+00    9.5296E+00
  9.9492E+00    0.0000E+00    7.8300E-01
  9.8571E+00    0.0000E+00    1.5612E+00
  9.7043E+00    0.0000E+00    2.3298E+00
  9.4915E+00    0.0000E+00    3.0840E+00
  9.2203E+00    0.0000E+00    3.8192E+00
  8.8922E+00    0.0000E+00    4.5308E+00
  8.5093E+00    0.0000E+00    5.2145E+00
  8.0740E+00    0.0000E+00    5.8661E+00
  7.5889E+00    0.0000E+00    6.4815E+00
  7.0569E+00    0.0000E+00    7.0569E+00
  6.4815E+00    0.0000E+00    7.5889E+00
  5.8661E+00    0.0000E+00    8.0740E+00
  5.2145E+00    0.0000E+00    8.5093E+00
  4.5308E+00    0.0000E+00    8.8922E+00
  3.8192E+00    0.0000E+00    9.2203E+00
  9.9891E+00    0.0000E+00    7.8620E-01
  9.8966E+00    0.0000E+00    1.5675E+00
  9.7431E+00    0.0000E+00    2.3391E+00
  9.5296E+00    0.0000E+00    3.0964E+00
  9.2573E+00    0.0000E+00    3.8345E+00
  8.9279E+00    0.0000E+00    4.5490E+00
  8.5435E+00    0.0000E+00    5.2354E+00
  8.1064E+00    0.0000E+00    5.8896E+00
  7.6193E+00    0.0000E+00    6.5075E+00
  7.0852E+00    0.0000E+00    7.0852E+00
  6.5075E+00    0.0000E+00    7.6193E+00
  5.8896E+00    0.0000E+00    8.1064E+00
  5.2354E+00    0.0000E+00    8.5435E+00
  4.5490E+00    0.0000E+00    8.9279E+00
  3.8345E+00    0.0000E+00    9.2573E+00
  9.9718E+00    9.8210E-01   -0.0000E+00
  9.8275E+00    1.9548E+00   -0.0000E+00
  9.5885E+00    2.9087E+00   -0.0000E+00
  9.2573E+00    3.8345E+00   -0.0000E+00
  8.8369E+00    4.7234E+00   -0.0000E+00
  8.3313E+00    5.5668E+00   -0.0000E+00
  7.7456E+00    6.3566E+00   -0.0000E+00
  7.0852E+00    7.0852E+00   -0.0000E+00
  6.3566E+00    7.7456E+00   -0.0000E+00
  5.5668E+00    8.3313E+00   -0.0000E+00
  4.7234E+00    8.8369E+00   -0.0000E+00
  3.8345E+00    9.2573E+00   -0.0000E+00
  2.9087E+00    9.5885E+00   -0.0000E+00
  1.9548E+00    9.8275E+00   -0.0000E+00
  9.8210E-01    9.9718E+00   -0.0000E+00
  0.0000E+00    1.0020E+01   -0.0000E+00
  9.9319E+00    9.7820E-01   -0.0000E+00
  9.7882E+00    1.9470E+00   -0.0000E+00
  9.5503E+00    2.8970E+00   -0.0000E+00
  9.2203E+00    3.8192E+00   -0.0000E+00
  8.8016E+00    4.7045E+00   -0.0000E+00
  8.2981E+00    5.5446E+00   -0.0000E+00
  7.7146E+00    6.3312E+00   -0.0000E+00
  7.0569E+00    7.0569E+00   -0.0000E+00
  6.3312E+00    7.7146E+00   -0.0000E+00
  5.5446E+00    8.2981E+00   -0.0000E+00
  4.7045E+00    8.8016E+00   -0.0000E+00
  3.8192E+00    9.2203E+00   -0.0000E+00
  2.8970E+00    9.5503E+00   -0.0000E+00
  1.9470E+00    9.7882E+00   -0.0000E+00
  9.7820E-01    9.9319E+00   -0.0000E+00
 -0.0000E+00    9.9800E+00   -0.0000E+00
  9.9013E+00    9.7520E-01    7.8300E-01
  9.7581E+00    1.9410E+00    7.8300E-01
  9.5208E+00    2.8881E+00    7.8300E-01
  9.1919E+00    3.8074E+00    7.8300E-01
  8.7744E+00    4.6900E+00    7.8300E-01
  8.2725E+00    5.5275E+00    7.8300E-01
  7.6909E+00    6.3117E+00    7.8300E-01
  7.0352E+00    7.0352E+00    7.8300E-01
  6.3117E+00    7.6909E+00    7.8300E-01
  5.5275E+00    8.2725E+00    7.8300E-01
  4.6900E+00    8.7744E+00    7.8300E-01
  3.8074E+00    9.1919E+00    7.8300E-01
  2.8881E+00    9.5208E+00    7.8300E-01
  1.9410E+00    9.7581E+00    7.8300E-01
  9.7520E-01    9.9013E+00    7.8300E-01
  0.0000E+00    9.9492E+00    7.8300E-01
  9.8097E+00    9.6620E-01    1.5612E+00
  9.6677E+00    1.9230E+00    1.5612E+00
  9.4327E+00    2.8614E+00    1.5612E+00
  9.1068E+00    3.7722E+00    1.5612E+00
  8.6932E+00    4.6466E+00    1.5612E+00
  8.1959E+00    5.4763E+00    1.5612E+00
  7.6197E+00    6.2533E+00    1.5612E+00
  6.9700E+00    6.9700E+00    1.5612E+00
  6.2533E+00    7.6197E+00    1.5612E+00
  5.4763E+00    8.1959E+00    1.5612E+00
  4.6466E+00    8.6932E+00    1.5612E+00
  3.7722E+00    9.1068E+00    1.5612E+00
  2.8614E+00    9.4327E+00    1.5612E+00
  1.9230E+00    9.6677E+00    1.5612E+00
  9.6620E-01    9.8097E+00    1.5612E+00
 -0.0000E+00    9.8571E+00    1.5612E+00
  9.6575E+00    9.5120E-01    2.3298E+00
  9.5178E+00    1.8932E+00    2.3298E+00
  9.2864E+00    2.8170E+00    2.3298E+00
  8.9656E+00    3.7137E+00    2.3298E+00
  8.5584E+00    4.5746E+00    2.3298E+00
  8.0688E+00    5.3914E+00    2.3298E+00
  7.5015E+00    6.1563E+00    2.3298E+00
  6.8619E+00    6.8619E+00    2.3298E+00
  6.1563E+00    7.5015E+00    2.3298E+00
  5.3914E+00    8.0688E+00    2.3298E+00
  4.5746E+00    8.5584E+00    2.3298E+00
  3.7137E+00    8.9656E+00    2.3298E+00
  2.8170E+00    9.2864E+00    2.3298E+00
  1.8932E+00    9.5178E+00    2.3298E+00
  9.5120E-01    9.6575E+00    2.3298E+00
  0.0000E+00    9.7043E+00    2.3298E+00
  9.4458E+00    9.3030E-01    3.0840E+00
  9.3092E+00    1.8517E+00    3.0840E+00
  9.0828E+00    2.7552E+00    3.0840E+00
  8.7690E+00    3.6323E+00    3.0840E+00
  8.3708E+00    4.4743E+00    3.0840E+00
  7.8919E+00    5.2732E+00    3.0840E+00
  7.3371E+00    6.0214E+00    3.0840E+00
  6.7115E+00    6.7115E+00    3.0840E+00
  6.0214E+00    7.3371E+00    3.0840E+00
  5.2732E+00    7.8919E+00    3.0840E+00
  4.4743E+00    8.3708E+00    3.0840E+00
  3.6323E+00    8.7690E+00    3.0840E+00
  2.7552E+00    9.0828E+00    3.0840E+00
  1.8517E+00    9.3092E+00    3.0840E+00
  9.3030E-01    9.4458E+00    3.0840E+00
  0.0000E+00    9.4915E+00    3.0840E+00
  9.1759E+00    9.0370E-01    3.8192E+00
  9.0432E+00    1.7988E+00    3.8192E+00
  8.8233E+00    2.6765E+00    3.8192E+00
  8.5185E+00    3.5285E+00    3.8192E+00
  8.1316E+00    4.3464E+00    3.8192E+00
  7.6664E+00    5.1225E+00    3.8192E+00
  7.1274E+00    5.8493E+00    3.8192E+00
  6.5197E+00    6.5197E+00    3.8192E+00
  5.8493E+00    7.1274E+00    3.8192E+00
  5.1225E+00    7.6664E+00    3.8192E+00
  4.3464E+00    8.1316E+00    3.8192E+00
  3.5285E+00    8.5185E+00    3.8192E+00
  2.6765E+00    8.8233E+00    3.8192E+00
  1.7988E+00    9.0432E+00    3.8192E+00
  9.0370E-01    9.1759E+00    3.8192E+00
 -0.0000E+00    9.2203E+00    3.8192E+00
  8.8494E+00    8.7160E-01    4.5308E+00
  8.7214E+00    1.7348E+00    4.5308E+00
  8.5093E+00    2.5813E+00    4.5308E+00
  8.2154E+00    3.4029E+00    4.5308E+00
  7.8423E+00    4.1918E+00    4.5308E+00
  7.3936E+00    4.9403E+00    4.5308E+00
  6.8738E+00    5.6412E+00    4.5308E+00
  6.2878E+00    6.2878E+00    4.5308E+00
  5.6412E+00    6.8738E+00    4.5308E+00
  4.9403E+00    7.3936E+00    4.5308E+00
  4.1918E+00    7.8423E+00    4.5308E+00
  3.4029E+00    8.2154E+00    4.5308E+00
  2.5813E+00    8.5093E+00    4.5308E+00
  1.7348E+00    8.7214E+00    4.5308E+00
  8.7160E-01    8.8494E+00    4.5308E+00
  0.0000E+00    8.8922E+00    4.5308E+00
  8.4684E+00    8.3410E-01    5.2145E+00
  8.3458E+00    1.6601E+00    5.2145E+00
  8.1429E+00    2.4701E+00    5.2145E+00
  7.8616E+00    3.2564E+00    5.2145E+00
  7.5046E+00    4.0113E+00    5.2145E+00
  7.0753E+00    4.7275E+00    5.2145E+00
  6.5778E+00    5.3983E+00    5.2145E+00
  6.0170E+00    6.0170E+00    5.2145E+00
  5.3983E+00    6.5778E+00    5.2145E+00
  4.7275E+00    7.0753E+00    5.2145E+00
  4.0113E+00    7.5046E+00    5.2145E+00
  3.2564E+00    7.8616E+00    5.2145E+00
  2.4701E+00    8.1429E+00    5.2145E+00
  1.6601E+00    8.3458E+00    5.2145E+00
  8.3410E-01    8.4684E+00    5.2145E+00
  0.0000E+00    8.5093E+00    5.2145E+00
  8.0351E+00    7.9140E-01    5.8661E+00
  7.9189E+00    1.5752E+00    5.8661E+00
  7.7263E+00    2.3438E+00    5.8661E+00
  7.4594E+00    3.0898E+00    5.8661E+00
  7.1206E+00    3.8061E+00    5.8661E+00
  6.7133E+00    4.4857E+00    5.8661E+00
  6.2413E+00    5.1221E+00    5.8661E+00
  5.7092E+00    5.7092E+00    5.8661E+00
  5.1221E+00    6.2413E+00    5.8661E+00
  4.4857E+00    6.7133E+00    5.8661E+00
  3.8061E+00    7.1206E+00    5.8661E+00
  3.0898E+00    7.4594E+00    5.8661E+00
  2.3438E+00    7.7263E+00    5.8661E+00
  1.5752E+00    7.9189E+00    5.8661E+00
  7.9140E-01    8.0351E+00    5.8661E+00
 -0.0000E+00    8.0740E+00    5.8661E+00
  7.5523E+00    7.4380E-01    6.4815E+00
  7.4430E+00    1.4805E+00    6.4815E+00
  7.2621E+00    2.2029E+00    6.4815E+00
  7.0112E+00    2.9041E+00    6.4815E+00
  6.6928E+00    3.5774E+00    6.4815E+00
  6.3099E+00    4.2161E+00    6.4815E+00
  5.8663E+00    4.8143E+00    6.4815E+00
  5.3661E+00    5.3661E+00    6.4815E+00
  4.8143E+00    5.8663E+00    6.4815E+00
  4.2161E+00    6.3099E+00    6.4815E+00
  3.5774E+00    6.6928E+00    6.4815E+00
  2.9041E+00    7.0112E+00    6.4815E+00
  2.2029E+00    7.2621E+00    6.4815E+00
  1.4805E+00    7.4430E+00    6.4815E+00
  7.4380E-01    7.5523E+00    6.4815E+00
  0.0000E+00    7.5889E+00    6.4815E+00
  7.0229E+00    6.9170E-01    7.0569E+00
  6.9213E+00    1.3767E+00    7.0569E+00
  6.7531E+00    2.0485E+00    7.0569E+00
  6.5197E+00    2.7006E+00    7.0569E+00
  6.2237E+00    3.3266E+00    7.0569E+00
  5.8676E+00    3.9206E+00    7.0569E+00
  5.4551E+00    4.4769E+00    7.0569E+00
  4.9900E+00    4.9900E+00    7.0569E+00
  4.4769E+00    5.4551E+00    7.0569E+00
  3.9206E+00    5.8676E+00    7.0569E+00
  3.3266E+00    6.2237E+00    7.0569E+00
  2.7006E+00    6.5197E+00    7.0569E+00
  2.0485E+00    6.7531E+00    7.0569E+00
  1.3767E+00    6.9213E+00    7.0569E+00
  6.9170E-01    7.0229E+00    7.0569E+00
  0.0000E+00    7.0569E+00    7.0569E+00
  6.4503E+00    6.3530E-01    7.5889E+00
  6.3570E+00    1.2645E+00    7.5889E+00
  6.2024E+00    1.8815E+00    7.5889E+00
  5.9881E+00    2.4804E+00    7.5889E+00
  5.7162E+00    3.0554E+00    7.5889E+00
  5.3892E+00    3.6009E+00    7.5889E+00
  5.0103E+00    4.1118E+00    7.5889E+00
  4.5831E+00    4.5831E+00    7.5889E+00
  4.1118E+00    5.0103E+00    7.5889E+00
[...]
POINT_DATA           578  
VECTORS deplacement   float64  
  5.5759E-05    0.0000E+00    0.0000E+00
  5.8593E-05    0.0000E+00    1.7674E-07
  1.5128E-06    0.0000E+00   -2.3070E-05
  1.4613E-06    0.0000E+00   -2.3139E-05
  4.8101E-05    0.0000E+00   -2.5696E-07
  3.9988E-05    0.0000E+00   -1.1721E-06
  3.3249E-05    0.0000E+00   -2.4470E-06
  2.7511E-05    0.0000E+00   -3.9974E-06
  2.2580E-05    0.0000E+00   -5.7479E-06
  1.8346E-05    0.0000E+00   -7.6343E-06
  1.4720E-05    0.0000E+00   -9.6008E-06
  1.1635E-05    0.0000E+00   -1.1601E-05
  9.0401E-06    0.0000E+00   -1.3592E-05
  6.8949E-06    0.0000E+00   -1.5530E-05
  5.1615E-06    0.0000E+00   -1.7367E-05
  3.8104E-06    0.0000E+00   -1.9049E-05
  2.7998E-06    0.0000E+00   -2.0531E-05
  2.1263E-06    0.0000E+00   -2.1698E-05
  1.6729E-06    0.0000E+00   -2.2638E-05
  4.6569E-05    0.0000E+00   -3.0972E-07
  3.8905E-05    0.0000E+00   -1.1895E-06
  3.2373E-05    0.0000E+00   -2.4671E-06
  2.6752E-05    0.0000E+00   -4.0418E-06
  2.1917E-05    0.0000E+00   -5.8216E-06
  1.7759E-05    0.0000E+00   -7.7348E-06
  1.4208E-05    0.0000E+00   -9.7184E-06
  1.1202E-05    0.0000E+00   -1.1722E-05
  8.6907E-06    0.0000E+00   -1.3699E-05
  6.6322E-06    0.0000E+00   -1.5605E-05
  4.9803E-06    0.0000E+00   -1.7401E-05
  3.6882E-06    0.0000E+00   -1.9052E-05
  2.7210E-06    0.0000E+00   -2.0509E-05
  2.0516E-06    0.0000E+00   -2.1712E-05
  1.6669E-06    0.0000E+00   -2.2570E-05
  5.3838E-05   -9.3482E-08   -6.4306E-07
  4.9484E-05   -7.3614E-07   -2.4437E-06
  4.4201E-05   -2.0542E-06   -5.1691E-06
  3.8605E-05   -4.0496E-06   -8.6227E-06
  3.3023E-05   -6.6819E-06   -1.2635E-05
  2.7646E-05   -9.8967E-06   -1.7051E-05
  2.2610E-05   -1.3623E-05   -2.1727E-05
  1.7995E-05   -1.7799E-05   -2.6528E-05
  1.3846E-05   -2.2372E-05   -3.1328E-05
  1.0200E-05   -2.7286E-05   -3.6001E-05
  7.0698E-06   -3.2515E-05   -4.0428E-05
  4.4831E-06   -3.8004E-05   -4.4481E-05
  2.4622E-06   -4.3701E-05   -4.8027E-05
  1.0092E-06   -4.9606E-05   -5.0921E-05
  1.6706E-07   -5.5501E-05   -5.2973E-05
  0.0000E+00   -6.0567E-05   -5.3894E-05
  5.4919E-05   -1.8159E-07   -5.9096E-07
  4.9852E-05   -9.3764E-07   -2.4820E-06
  4.4208E-05   -2.3583E-06   -5.2711E-06
  3.8423E-05   -4.4374E-06   -8.7677E-06
  3.2744E-05   -7.1331E-06   -1.2801E-05
  2.7351E-05   -1.0376E-05   -1.7217E-05
  2.2333E-05   -1.4111E-05   -2.1877E-05
  1.7757E-05   -1.8271E-05   -2.6649E-05
  1.3644E-05   -2.2824E-05   -3.1408E-05
  1.0027E-05   -2.7717E-05   -3.6034E-05
  6.9029E-06   -3.2951E-05   -4.0407E-05
  4.3248E-06   -3.8430E-05   -4.4395E-05
  2.2947E-06   -4.4145E-05   -4.7864E-05
  8.7969E-07   -4.9869E-05   -5.0646E-05
  1.1553E-07   -5.5246E-05   -5.2540E-05
  0.0000E+00   -5.7041E-05   -5.3196E-05
  4.6138E-05   -9.7286E-08   -9.7238E-07
  4.2542E-05   -6.3444E-07   -2.8056E-06
  3.8106E-05   -1.7537E-06   -5.5367E-06
  3.3316E-05   -3.4784E-06   -8.9737E-06
  2.8467E-05   -5.7857E-06   -1.2951E-05
  2.3756E-05   -8.6244E-06   -1.7315E-05
  1.9314E-05   -1.1935E-05   -2.1926E-05
  1.5225E-05   -1.5659E-05   -2.6654E-05
  1.1544E-05   -1.9740E-05   -3.1371E-05
  8.3143E-06   -2.4115E-05   -3.5956E-05
  5.5663E-06   -2.8725E-05   -4.0285E-05
  3.3393E-06   -3.3463E-05   -4.4229E-05
  1.6625E-06   -3.8193E-05   -4.7647E-05
  5.7505E-07   -4.2611E-05   -5.0369E-05
  8.7745E-08   -4.6110E-05   -5.2182E-05
  0.0000E+00   -4.7380E-05   -5.2815E-05
  3.8583E-05   -6.9241E-08   -1.8472E-06
  3.5972E-05   -4.5912E-07   -3.5687E-06
  3.2486E-05   -1.3380E-06   -6.1742E-06
  2.8554E-05   -2.7550E-06   -9.4819E-06
  2.4459E-05   -4.7057E-06   -1.3329E-05
  2.0402E-05   -7.1546E-06   -1.7566E-05
  1.6528E-05   -1.0048E-05   -2.2053E-05
  1.2935E-05   -1.3326E-05   -2.6660E-05
  9.6951E-06   -1.6922E-05   -3.1259E-05
  6.8647E-06   -2.0764E-05   -3.5726E-05
  4.4866E-06   -2.4760E-05   -3.9935E-05
  2.5997E-06   -2.8784E-05   -4.3752E-05
  1.2338E-06   -3.2651E-05   -4.7034E-05
  4.0217E-07   -3.6059E-05   -4.9611E-05
  7.0050E-08   -3.8523E-05   -5.1288E-05
  0.0000E+00   -3.9425E-05   -5.1873E-05
  3.2135E-05   -5.4900E-08   -3.0968E-06
  3.0145E-05   -3.5165E-07   -4.6901E-06
  2.7398E-05   -1.0444E-06   -7.1277E-06
  2.4189E-05   -2.2016E-06   -1.0252E-05
  2.0767E-05   -3.8336E-06   -1.3909E-05
  1.7319E-05   -5.9183E-06   -1.7954E-05
  1.3987E-05   -8.4101E-06   -2.2251E-05
  1.0879E-05   -1.1251E-05   -2.6669E-05
  8.0742E-06   -1.4372E-05   -3.1080E-05
  5.6348E-06   -1.7690E-05   -3.5360E-05
  3.6087E-06   -2.1103E-05   -3.9380E-05
  2.0331E-06   -2.4474E-05   -4.3007E-05
  9.2973E-07   -2.7616E-05   -4.6095E-05
  2.8995E-07   -3.0270E-05   -4.8486E-05
  5.5592E-08   -3.2096E-05   -5.0014E-05
  0.0000E+00   -3.2746E-05   -5.0544E-05
  2.6601E-05   -4.4691E-08   -4.6193E-06
  2.5032E-05   -2.7866E-07   -6.0870E-06
  2.2855E-05   -8.2812E-07   -8.3347E-06
  2.0249E-05   -1.7691E-06   -1.1239E-05
  1.7416E-05   -3.1223E-06   -1.4659E-05
  1.4521E-05   -4.8752E-06   -1.8461E-05
  1.1698E-05   -6.9911E-06   -2.2510E-05
  9.0503E-06   -9.4165E-06   -2.6681E-05
  6.6592E-06   -1.2083E-05   -3.0846E-05
  4.5902E-06   -1.4904E-05   -3.4881E-05
  2.8895E-06   -1.7778E-05   -3.8657E-05
  1.5900E-06   -2.0571E-05   -4.2044E-05
  7.0337E-07   -2.3115E-05   -4.4902E-05
  2.0993E-07   -2.5200E-05   -4.7089E-05
  4.4266E-08   -2.6574E-05   -4.8464E-05
  0.0000E+00   -2.7042E-05   -4.8934E-05
  2.1835E-05   -3.6416E-08   -6.3360E-06
  2.0581E-05   -2.2333E-07   -7.6792E-06
  1.8845E-05   -6.6191E-07   -9.7299E-06
  1.6741E-05   -1.4223E-06   -1.2391E-05
  1.4420E-05   -2.5336E-06   -1.5543E-05
  1.2020E-05   -3.9900E-06   -1.9060E-05
  9.6609E-06   -5.7617E-06   -2.2819E-05
  7.4400E-06   -7.8010E-06   -2.6695E-05
  5.4347E-06   -1.0043E-05   -3.0566E-05
  3.7060E-06   -1.2407E-05   -3.4309E-05
  2.2984E-06   -1.4795E-05   -3.7801E-05
  1.2386E-06   -1.7084E-05   -4.0914E-05
  5.3243E-07   -1.9130E-05   -4.3519E-05
  1.5520E-07   -2.0761E-05   -4.5489E-05
  3.8487E-08   -2.1792E-05   -4.6709E-05
  0.0000E+00   -2.2138E-05   -4.7124E-05
  1.7739E-05   -2.9545E-08   -8.1826E-06
  1.6732E-05   -1.7981E-07   -9.4023E-06
  1.5345E-05   -5.3030E-07   -1.1254E-05
  1.3657E-05   -1.1414E-06   -1.3660E-05
  1.1776E-05   -2.0434E-06   -1.6521E-05
  9.8136E-06   -3.2375E-06   -1.9727E-05
  7.8725E-06   -4.6991E-06   -2.3161E-05
  6.0387E-06   -6.3868E-06   -2.6708E-05
  4.3836E-06   -8.2425E-06   -3.0249E-05
  2.9622E-06   -1.0193E-05   -3.3667E-05
  1.8146E-06   -1.2147E-05   -3.6843E-05
  9.6283E-07   -1.3999E-05   -3.9659E-05
  4.0779E-07   -1.5622E-05   -4.1996E-05
  1.2176E-07   -1.6883E-05   -4.3742E-05
  3.5920E-08   -1.7656E-05   -4.4811E-05
  0.0000E+00   -1.7909E-05   -4.5172E-05
  1.4239E-05   -2.3301E-08   -1.0099E-05
  1.3432E-05   -1.4389E-07   -1.1196E-05
  1.2328E-05   -4.2315E-07   -1.2849E-05
  1.0984E-05   -9.1069E-07   -1.4998E-05
  9.4771E-06   -1.6346E-06   -1.7559E-05
  7.8960E-06   -2.5986E-06   -2.0435E-05
  6.3241E-06   -3.7852E-06   -2.3523E-05
  4.8358E-06   -5.1586E-06   -2.6715E-05
  3.4932E-06   -6.6677E-06   -2.9901E-05
  2.3445E-06   -8.2484E-06   -3.2971E-05
  1.4250E-06   -9.8203E-06   -3.5812E-05
  7.5213E-07   -1.1291E-05   -3.8315E-05
  3.2174E-07   -1.2560E-05   -4.0376E-05
  1.0469E-07   -1.3520E-05   -4.1900E-05
  3.5821E-08   -1.4095E-05   -4.2826E-05
  0.0000E+00   -1.4284E-05   -4.3140E-05
  1.1270E-05   -1.7808E-08   -1.2037E-05
  1.0629E-05   -1.1377E-07   -1.3011E-05
  9.7573E-06   -3.3505E-07   -1.4471E-05
  8.6967E-06   -7.2057E-07   -1.6364E-05
  7.5072E-06   -1.2935E-06   -1.8620E-05
  6.2534E-06   -2.0598E-06   -2.1160E-05
  5.0036E-06   -3.0055E-06   -2.3890E-05
  3.8182E-06   -4.1017E-06   -2.6714E-05
  2.7499E-06   -5.3051E-06   -2.9530E-05
  1.8401E-06   -6.5602E-06   -3.2238E-05
  1.1173E-06   -7.7998E-06   -3.4734E-05
  5.9503E-07   -8.9453E-06   -3.6919E-05
  2.6614E-07   -9.9155E-06   -3.8703E-05
  9.8822E-08   -1.0637E-05   -4.0015E-05
  3.6202E-08   -1.1061E-05   -4.0809E-05
  0.0000E+00   -1.1205E-05   -4.1082E-05
  8.7808E-06   -1.3149E-08   -1.3955E-05
  8.2798E-06   -8.8781E-08   -1.4806E-05
  7.5981E-06   -2.6247E-07   -1.6076E-05
  6.7727E-06   -5.6353E-07   -1.7719E-05
  5.8483E-06   -1.0101E-06   -1.9675E-05
  4.8729E-06   -1.6080E-06   -2.1877E-05
  3.8987E-06   -2.3465E-06   -2.4247E-05
  2.9741E-06   -3.2030E-06   -2.6699E-05
  2.1415E-06   -4.1416E-06   -2.9142E-05
  1.4358E-06   -5.1158E-06   -3.1484E-05
  8.7870E-07   -6.0716E-06   -3.3636E-05
  4.8042E-07   -6.9448E-06   -3.5508E-05
  2.3090E-07   -7.6727E-06   -3.7027E-05
  9.8664E-08   -8.2054E-06   -3.8138E-05
  3.5187E-08   -8.5219E-06   -3.8818E-05
  0.0000E+00   -8.6376E-06   -3.9056E-05
  6.7204E-06   -1.0053E-08   -1.5819E-05
  6.3399E-06   -6.8494E-08   -1.6543E-05
  5.8162E-06   -2.0298E-07   -1.7630E-05
  5.1853E-06   -4.3434E-07   -1.9029E-05
  4.4805E-06   -7.7610E-07   -2.0693E-05
  3.7378E-06   -1.2325E-06   -2.2565E-05
  2.9951E-06   -1.7962E-06   -2.4580E-05
  2.2899E-06   -2.4491E-06   -2.6666E-05
  1.6550E-06   -3.1635E-06   -2.8743E-05
  1.1180E-06   -3.9026E-06   -3.0729E-05
  6.9624E-07   -4.6235E-06   -3.2548E-05
  3.9601E-07   -5.2767E-06   -3.4123E-05
  2.0682E-07   -5.8145E-06   -3.5395E-05
  9.6840E-08   -6.2120E-06   -3.6334E-05
  3.1355E-08   -6.4574E-06   -3.6920E-05
  0.0000E+00   -6.5602E-06   -3.7135E-05
  5.0450E-06   -8.8688E-09   -1.7594E-05
  4.7665E-06   -5.3375E-08   -1.8193E-05
  4.3751E-06   -1.5545E-07   -1.9100E-05
  3.9043E-06   -3.2954E-07   -2.0265E-05
  3.3800E-06   -5.8510E-07   -2.1648E-05
  2.8288E-06   -9.2460E-07   -2.3202E-05
  2.2769E-06   -1.3433E-06   -2.4876E-05
  1.7511E-06   -1.8280E-06   -2.6611E-05
  1.2761E-06   -2.3585E-06   -2.8340E-05
  8.7285E-07   -2.9080E-06   -2.9994E-05
  5.5628E-07   -3.4430E-06   -3.1504E-05
  3.2931E-07   -3.9295E-06   -3.2813E-05
  1.8336E-07   -4.3299E-06   -3.3871E-05
  8.8706E-08   -4.6369E-06   -3.4668E-05
  2.5794E-08   -4.8381E-06   -3.5178E-05
  0.0000E+00   -4.9367E-06   -3.5380E-05
  3.7272E-06   -9.0410E-09   -1.9234E-05
  3.5284E-06   -4.2903E-08   -1.9717E-05
  3.2441E-06   -1.1876E-07   -2.0454E-05
  2.9016E-06   -2.4678E-07   -2.1399E-05
  2.5219E-06   -4.3302E-07   -2.2518E-05
  2.1226E-06   -6.7940E-07   -2.3776E-05
  1.7212E-06   -9.8291E-07   -2.5134E-05
  1.3355E-06   -1.3354E-06   -2.6546E-05
  9.8427E-07   -1.7227E-06   -2.7958E-05
  6.8289E-07   -2.1269E-06   -2.9312E-05
  4.4420E-07   -2.5241E-06   -3.0551E-05
  2.7126E-07   -2.8893E-06   -3.1629E-05
  1.5647E-07   -3.1964E-06   -3.2510E-05
  7.5619E-08   -3.4436E-06   -3.3190E-05
  2.2405E-08   -3.6057E-06   -3.3624E-05
  0.0000E+00   -3.6916E-06   -3.3805E-05
  2.7471E-06   -9.0774E-09   -2.0669E-05
  2.6004E-06   -3.5985E-08   -2.1062E-05
  2.3935E-06   -9.2129E-08   -2.1653E-05
  2.1459E-06   -1.8542E-07   -2.2407E-05
  1.8725E-06   -3.1989E-07   -2.3294E-05
  1.5859E-06   -4.9688E-07   -2.4291E-05
  1.2973E-06   -7.1465E-07   -2.5369E-05
  1.0190E-06   -9.6744E-07   -2.6492E-05
  7.6199E-07   -1.2476E-06   -2.7621E-05
  5.3908E-07   -1.5423E-06   -2.8709E-05
  3.5915E-07   -1.8379E-06   -2.9712E-05
  2.2686E-07   -2.1151E-06   -3.0590E-05
  1.3598E-07   -2.3548E-06   -3.1318E-05
  6.9056E-08   -2.5537E-06   -3.1890E-05
  2.5924E-08   -2.6746E-06   -3.2239E-05
  0.0000E+00   -2.7386E-06   -3.2387E-05
  2.0686E-06   -1.0498E-08   -2.1843E-05
  1.9540E-06   -3.1770E-08   -2.2172E-05
  1.7908E-06   -7.6160E-08   -2.2664E-05
  1.5991E-06   -1.4825E-07   -2.3279E-05
  1.3930E-06   -2.4962E-07   -2.3990E-05
  1.1846E-06   -3.7870E-07   -2.4770E-05
  9.8190E-07   -5.3258E-07   -2.5598E-05
  7.8879E-07   -7.0890E-07   -2.6456E-05
  6.1020E-07   -9.0361E-07   -2.7318E-05
  4.5011E-07   -1.1139E-06   -2.8163E-05
  3.1655E-07   -1.3308E-06   -2.8953E-05
  2.1410E-07   -1.5413E-06   -2.9657E-05
  1.3923E-07   -1.7296E-06   -3.0252E-05
  8.1431E-08   -1.8834E-06   -3.0718E-05
  3.8187E-08   -1.9711E-06   -3.0991E-05
  0.0000E+00   -2.0224E-06   -3.1121E-05
  1.6584E-06   -1.2479E-08   -2.2702E-05
  1.5499E-06   -3.6500E-08   -2.3016E-05
  1.3990E-06   -7.8758E-08   -2.3470E-05
  1.2272E-06   -1.4285E-07   -2.4018E-05
  1.0562E-06   -2.2528E-07   -2.4611E-05
  8.9988E-07   -3.2014E-07   -2.5216E-05
  7.6254E-07   -4.2330E-07   -2.5817E-05
  6.4120E-07   -5.3498E-07   -2.6415E-05
  5.2815E-07   -6.6121E-07   -2.7024E-05
  4.2227E-07   -8.0407E-07   -2.7637E-05
  3.2578E-07   -9.6341E-07   -2.8241E-05
  2.4624E-07   -1.1195E-06   -2.8787E-05
  1.7840E-07   -1.2711E-06   -2.9278E-05
  1.1922E-07   -1.3772E-06   -2.9630E-05
  6.0550E-08   -1.4502E-06   -2.9867E-05
  0.0000E+00   -1.4806E-06   -2.9958E-05
  1.4185E-06   -3.3073E-08   -2.3347E-05
  1.3148E-06   -7.1391E-08   -2.3661E-05
  1.1736E-06   -1.2262E-07   -2.4090E-05
  1.0143E-06   -1.8726E-07   -2.4593E-05
  8.5616E-07   -2.6106E-07   -2.5128E-05
  7.2096E-07   -3.3247E-07   -2.5631E-05
  6.2153E-07   -3.9169E-07   -2.6056E-05
  5.5364E-07   -4.4221E-07   -2.6406E-05
  5.0133E-07   -5.0140E-07   -2.6738E-05
  4.4833E-07   -5.8925E-07   -2.7115E-05
  3.9170E-07   -7.0230E-07   -2.7532E-05
  3.3050E-07   -8.2458E-07   -2.7959E-05
  2.6691E-07   -9.3017E-07   -2.8322E-05
  1.8619E-07   -1.0100E-06   -2.8619E-05
  1.0074E-07   -1.0520E-06   -2.8784E-05
  0.0000E+00   -1.0458E-06   -2.8795E-05
  1.3847E-06   -1.6417E-08   -2.3348E-05
  1.2675E-06   -3.8558E-08   -2.3675E-05
  1.1190E-06   -7.6189E-08   -2.4101E-05
  9.5645E-07   -1.3189E-07   -2.4594E-05
  8.0113E-07   -2.0251E-07   -2.5108E-05
  6.7372E-07   -2.7786E-07   -2.5594E-05
  5.8511E-07   -3.4436E-07   -2.6016E-05
  5.2645E-07   -3.9922E-07   -2.6380E-05
  4.7652E-07   -4.5743E-07   -2.6735E-05
  4.1929E-07   -5.4058E-07   -2.7131E-05
  3.5638E-07   -6.4376E-07   -2.7549E-05
  2.9053E-07   -7.6942E-07   -2.7990E-05
  2.2028E-07   -8.5877E-07   -2.8324E-05
  1.5976E-07   -9.5824E-07   -2.8650E-05
  6.7410E-08   -9.9562E-07   -2.8805E-05
  0.0000E+00   -1.1139E-06   -2.9219E-05
  4.5229E-05   -6.4258E-08   -9.3882E-07
  4.2141E-05   -5.1798E-07   -2.6896E-06
  3.8029E-05   -1.5408E-06   -5.3669E-06
  3.3421E-05   -3.1800E-06   -8.7785E-06
  2.8666E-05   -5.4183E-06   -1.2750E-05
  2.3986E-05   -8.2115E-06   -1.7128E-05
  1.9533E-05   -1.1502E-05   -2.1766E-05
  1.5414E-05   -1.5224E-05   -2.6530E-05
  1.1698E-05   -1.9315E-05   -3.1293E-05
  8.4361E-06   -2.3710E-05   -3.5929E-05
  5.6626E-06   -2.8342E-05   -4.0316E-05
  3.4108E-06   -3.3126E-05   -4.4326E-05
  1.7087E-06   -3.7938E-05   -4.7824E-05
  5.7324E-07   -4.2600E-05   -5.0658E-05
  1.6745E-08   -4.6673E-05   -5.2629E-05
  0.0000E+00   -4.8970E-05   -5.3438E-05
  3.7903E-05   -4.7677E-08   -1.7898E-06
  3.5576E-05   -3.8864E-07   -3.4395E-06
  3.2356E-05   -1.1882E-06   -5.9881E-06
  2.8593E-05   -2.5244E-06   -9.2689E-06
  2.4593E-05   -4.4045E-06   -1.3114E-05
  2.0575E-05   -6.7991E-06   -1.7368E-05
  1.6698E-05   -9.6608E-06   -2.1888E-05
  1.3080E-05   -1.2927E-05   -2.6536E-05
  9.8051E-06   -1.6530E-05   -3.1185E-05
  6.9356E-06   -2.0393E-05   -3.5707E-05
  4.5197E-06   -2.4429E-05   -3.9977E-05
  2.5952E-06   -2.8523E-05   -4.3865E-05
  1.1880E-06   -3.2522E-05   -4.7233E-05
  3.1306E-07   -3.6179E-05   -4.9921E-05
 -4.9810E-08   -3.9048E-05   -5.1732E-05
  0.0000E+00   -4.0312E-05   -5.2412E-05
  3.1619E-05   -3.5525E-08   -3.0277E-06
  2.9779E-05   -3.0444E-07   -4.5708E-06
  2.7234E-05   -9.3566E-07   -6.9511E-06
  2.4180E-05   -2.0191E-06   -1.0042E-05
  2.0849E-05   -3.5830E-06   -1.3694E-05
  1.7444E-05   -5.6107E-06   -1.7755E-05
  1.4116E-05   -8.0646E-06   -2.2085E-05
  1.0987E-05   -1.0888E-05   -2.6546E-05
  8.1458E-06   -1.4011E-05   -3.1010E-05
  5.6636E-06   -1.7354E-05   -3.5348E-05
  3.5911E-06   -2.0817E-05   -3.9435E-05
  1.9700E-06   -2.4275E-05   -4.3137E-05
  8.2203E-07   -2.7564E-05   -4.6314E-05
  1.5261E-07   -3.0442E-05   -4.8810E-05
 -7.7733E-08   -3.2515E-05   -5.0439E-05
  0.0000E+00   -3.3296E-05   -5.1016E-05
  2.6164E-05   -2.7153E-08   -4.5605E-06
  2.4706E-05   -2.3977E-07   -5.9850E-06
  2.2671E-05   -7.4406E-07   -8.1817E-06
  2.0203E-05   -1.6190E-06   -1.1046E-05
  1.7462E-05   -2.9057E-06   -1.4453E-05
  1.4612E-05   -4.6015E-06   -1.8265E-05
  1.1796E-05   -6.6767E-06   -2.2344E-05
  9.1298E-06   -9.0818E-06   -2.6558E-05
  6.7031E-06   -1.1749E-05   -3.0777E-05
  4.5877E-06   -1.4599E-05   -3.4873E-05
  2.8374E-06   -1.7531E-05   -3.8719E-05
  1.4884E-06   -2.0421E-05   -4.2186E-05
  5.6371E-07   -2.3102E-05   -4.5132E-05
  5.7001E-08   -2.5357E-05   -4.7410E-05
 -8.5770E-08   -2.6875E-05   -4.8856E-05
  0.0000E+00   -2.7414E-05   -4.9356E-05
  2.1456E-05   -2.0697E-08   -6.2962E-06
  2.0292E-05   -1.8978E-07   -7.5987E-06
  1.8660E-05   -5.9332E-07   -9.6024E-06
  1.6671E-05   -1.2980E-06   -1.2221E-05
  1.4437E-05   -2.3454E-06   -1.5349E-05
  1.2084E-05   -3.7451E-06   -1.8870E-05
  9.7364E-06   -5.4749E-06   -2.2653E-05
  7.4991E-06   -7.4923E-06   -2.6569E-05
  5.4583E-06   -9.7368E-06   -3.0494E-05
  3.6839E-06   -1.2130E-05   -3.4300E-05
  2.2260E-06   -1.4578E-05   -3.7865E-05
  1.1209E-06   -1.6961E-05   -4.1059E-05
  3.8514E-07   -1.9122E-05   -4.3747E-05
  5.4507E-09   -2.0876E-05   -4.5792E-05
 -8.4741E-08   -2.2007E-05   -4.7069E-05
  0.0000E+00   -2.2395E-05   -4.7503E-05
  1.7402E-05   -1.5205E-08   -8.1624E-06
  1.6474E-05   -1.4933E-07   -9.3420E-06
  1.5169E-05   -4.7108E-07   -1.1150E-05
  1.3575E-05   -1.0347E-06   -1.3513E-05
  1.1773E-05   -1.8789E-06   -1.6345E-05
  9.8580E-06   -3.0173E-06   -1.9544E-05
  7.9304E-06   -4.4372E-06   -2.2996E-05
  6.0821E-06   -6.1035E-06   -2.6579E-05
  4.3943E-06   -7.9615E-06   -3.0171E-05
  2.9292E-06   -9.9407E-06   -3.3653E-05
  1.7364E-06   -1.1951E-05   -3.6902E-05
  8.4584E-07   -1.3883E-05   -3.9796E-05
  2.6814E-07   -1.5603E-05   -4.2210E-05
 -1.6117E-08   -1.6958E-05   -4.4022E-05
 -7.6288E-08   -1.7806E-05   -4.5140E-05
  0.0000E+00   -1.8098E-05   -4.5521E-05
  1.3937E-05   -1.0486E-08   -1.0097E-05
  1.3203E-05   -1.1554E-07   -1.1152E-05
  1.2167E-05   -3.7001E-07   -1.2765E-05
  1.0898E-05   -8.1769E-07   -1.4871E-05
  9.4597E-06   -1.4902E-06   -1.7398E-05
  7.9225E-06   -2.4032E-06   -2.0262E-05
  6.3650E-06   -3.5496E-06   -2.3360E-05
  4.8654E-06   -4.9018E-06   -2.6584E-05
  3.4930E-06   -6.4131E-06   -2.9820E-05
  2.3065E-06   -8.0197E-06   -3.2950E-05
  1.3477E-06   -9.6419E-06   -3.5862E-05
  6.4300E-07   -1.1182E-05   -3.8440E-05
  1.9561E-07   -1.2529E-05   -4.0573E-05
 -1.7624E-08   -1.3566E-05   -4.2158E-05
 -6.3511E-08   -1.4202E-05   -4.3129E-05
  0.0000E+00   -1.4423E-05   -4.3461E-05
  1.1000E-05   -6.2680E-09   -1.2050E-05
  1.0429E-05   -8.6733E-08   -1.2978E-05
  9.6138E-06   -2.8576E-07   -1.4400E-05
  8.6144E-06   -6.3716E-07   -1.6252E-05
  7.4805E-06   -1.1665E-06   -1.8475E-05
  6.2651E-06   -1.8873E-06   -2.0998E-05
  5.0282E-06   -2.7969E-06   -2.3734E-05
  3.8332E-06   -3.8736E-06   -2.6586E-05
  2.7400E-06   -5.0785E-06   -2.9448E-05
  1.7977E-06   -6.3571E-06   -3.2213E-05
  1.0429E-06   -7.6399E-06   -3.4777E-05
  4.9553E-07   -8.8448E-06   -3.7033E-05
  1.5435E-07   -9.8806E-06   -3.8886E-05
 -6.1998E-09   -1.0662E-05   -4.0252E-05
 -4.7751E-08   -1.1140E-05   -4.1090E-05
  0.0000E+00   -1.1309E-05   -4.1378E-05
  8.5432E-06   -2.5508E-09   -1.3978E-05
  8.1077E-06   -6.2241E-08   -1.4779E-05
  7.4744E-06   -2.1543E-07   -1.6013E-05
  6.6970E-06   -4.8768E-07   -1.7618E-05
  5.8152E-06   -8.9838E-07   -1.9544E-05
  4.8694E-06   -1.4584E-06   -2.1730E-05
  3.9054E-06   -2.1664E-06   -2.4104E-05
  2.9730E-06   -3.0062E-06   -2.6580E-05