# vtk DataFile Version 3.0 
vtk output 
ASCII 
DATASET UNSTRUCTURED_GRID 
POINTS           578 float
  1.0020E+01    0.0000E+00   -0.0000E+00
  9.9800E+00    0.0000E+00   -0.0000E+00
  3.0840E+00    0.0000E+00    9.4915E+00
  3.0964E+00    0.0000E+00    9.5296E+00
  9.9492E+00    0.0000E+00    7.8300E-01
  9.8571E+00    0.0000E+00    1.5612E+00
  9.7043E+00    0.0000E+00    2.3298E+00
  9.4915E+00    0.0000E+00    3.0840E+00
  9.2203E+00    0.0000E+00    3.8192E+00
  8.8922E+00    0.0000E+00    4.5308E+00
  8.5093E+00    0.0000E+00    5.2145E+00
  8.0740E+00    0.0000E+00    5.8661E+00
  7.5889E+00    0.0000E+00    6.4815E+00
  7.0569E+00    0.0000E+00    7.0569E+00
  6.4815E+00    0.0000E+00    7.5889E+00
  5.8661E+00    0.0000E+00    8.0740E+00
  5.2145E+00    0.0000E+00    8.5093E+00
  4.5308E+00    0.0000E+00    8.8922E+00
  3.8192E+00    0.0000E+00    9.2203E+00
  9.9891E+00    0.0000E+00    7.8620E-01
  9.8966E+00    0.0000E+00    1.5675E+00
  9.7431E+00    0.0000E+00    2.3391E+00
  9.5296E+00    0.0000E+00    3.0964E+00
  9.2573E+00    0.0000E+00    3.8345E+00
  8.9279E+00    0.0000E+00    4.5490E+00
  8.5435E+00    0.0000E+00    5.2354E+00
  8.1064E+00    0.0000E+00    5.8896E+00
  7.6193E+00    0.0000E+00    6.5075E+00
  7.0852E+00    0.0000E+00    7.0852E+00
  6.5075E+00    0.0000E+00    7.6193E+00
  5.8896E+00    0.0000E+00    8.1064E+00
  5.2354E+00    0.0000E+00    8.5435E+00
  4.5490E+00    0.0000E+00    8.9279E+00
  3.8345E+00    0.0000E+00    9.2573E+00
  9.9718E+00    9.8210E-01   -0.0000E+00
  9.8275E+00    1.9548E+00   -0.0000E+00
  9.5885E+00    2.9087E+00   -0.0000E+00
  9.2573E+00    3.8345E+00   -0.0000E+00
  8.8369E+00    4.7234E+00   -0.0000E+00
  8.3313E+00    5.5668E+00   -0.0000E+00
  7.7456E+00    6.3566E+00   -0.0000E+00
  7.0852E+00    7.0852E+00   -0.0000E+00
  6.3566E+00    7.7456E+00   -0.0000E+00
  5.5668E+00    8.3313E+00   -0.0000E+00
  4.7234E+00    8.8369E+00   -0.0000E+00
  3.8345E+00    9.2573E+00   -0.0000E+00
  2.9087E+00    9.5885E+00   -0.0000E+00
  1.9548E+00    9.8275E+00   -0.0000E+00
  9.8210E-01    9.9718E+00   -0.0000E+00
  0.0000E+00    1.0020E+01   -0.0000E+00
  9.9319E+00    9.7820E-01   -0.0000E+00
  9.7882E+00    1.9470E+00   -0.0000E+00
  9.5503E+00    2.8970E+00   -0.0000E+00
  9.2203E+00    3.8192E+00   -0.0000E+00
  8.8016E+00    4.7045E+00   -0.0000E+00
  8.2981E+00    5.5446E+00   -0.0000E+00
  7.7146E+00    6.3312E+00   -0.0000E+00
  7.0569E+00    7.0569E+00   -0.0000E+00
  6.3312E+00    7.7146E+00   -0.0000E+00
  5.5446E+00    8.2981E+00   -0.0000E+00
  4.7045E+00    8.8016E+00   -0.0000E+00
  3.8192E+00    9.2203E+00   -0.0000E+00
  2.8970E+00    9.5503E+00   -0.0000E+00
  1.9470E+00    9.7882E+00   -0.0000E+00
  9.7820E-01    9.9319E+00   -0.0000E+00
 -0.0000E+00    9.9800E+00   -0.0000E+00
  9.9013E+00    9.7520E-01    7.8300E-01
  9.7581E+00    1.9410E+00    7.8300E-01
  9.5208E+00    2.8881E+00    7.8300E-01
  9.1919E+00    3.8074E+00    7.8300E-01
  8.7744E+00    4.6900E+00    7.8300E-01
  8.2725E+00    5.5275E+00    7.8300E-01
  7.6909E+00    6.3117E+00    7.8300E-01
  7.0352E+00    7.0352E+00    7.8300E-01
  6.3117E+00    7.6909E+00    7.8300E-01
  5.5275E+00    8.2725E+00    7.8300E-01
  4.6900E+00    8.7744E+00    7.8300E-01
  3.8074E+00    9.1919E+00    7.8300E-01
  2.8881E+00    9.5208E+00    7.8300E-01
  1.9410E+00    9.7581E+00    7.8300E-01
  9.7520E-01    9.9013E+00    7.8300E-01
  0.0000E+00    9.9492E+00    7.8300E-01
  9.8097E+00    9.6620E-01    1.5612E+00
  9.6677E+00    1.9230E+00    1.5612E+00
  9.4327E+00    2.8614E+00    1.5612E+00
  9.1068E+00    3.7722E+00    1.5612E+00
  8.6932E+00    4.6466E+00    1.5612E+00
  8.1959E+00    5.4763E+00    1.5612E+00
  7.6197E+00    6.2533E+00    1.5612E+00
  6.9700E+00    6.9700E+00    1.5612E+00
  6.2533E+00    7.6197E+00    1.5612E+00
  5.4763E+00    8.1959E+00    1.5612E+00
  4.6466E+00    8.6932E+00    1.5612E+00
  3.7722E+00    9.1068E+00    1.5612E+00
  2.8614E+00    9.4327E+00    1.5612E+00
  1.9230E+00    9.6677E+00    1.5612E+00
  9.6620E-01    9.8097E+00    1.5612E+00
 -0.0000E+00    9.8571E+00    1.5612E+00
  9.6575E+00    9.5120E-01    2.3298E+00
  9.5178E+00    1.8932E+00    2.3298E+00
  9.2864E+00    2.8170E+00    2.3298E+00
  8.9656E+00    3.7137E+00    2.3298E+00
  8.5584E+00    4.5746E+00    2.3298E+00
  8.0688E+00    5.3914E+00    2.3298E+00
  7.5015E+00    6.1563E+00    2.3298E+00
  6.8619E+00    6.8619E+00    2.3298E+00
  6.1563E+00    7.5015E+00    2.3298E+00
  5.3914E+00    8.0688E+00    2.3298E+00
  4.5746E+00    8.5584E+00    2.3298E+00
  3.7137E+00    8.9656E+00    2.3298E+00
  2.8170E+00    9.2864E+00    2.3298E+00
  1.8932E+00    9.5178E+00    2.3298E+00
  9.5120E-01    9.6575E+00    2.3298E+00
  0.0000E+00    9.7043E+00    2.3298E+00
  9.4458E+00    9.3030E-01    3.0840E+00
  9.3092E+00    1.8517E+00    3.0840E+00
  9.0828E+00    2.7552E+00    3.0840E+00
  8.7690E+00    3.6323E+00    3.0840E+00
  8.3708E+00    4.4743E+00    3.0840E+00
  7.8919E+00    5.2732E+00    3.0840E+00
  7.3371E+00    6.0214E+00    3.0840E+00
  6.7115E+00    6.7115E+00    3.0840E+00
  6.0214E+00    7.3371E+00    3.0840E+00
  5.2732E+00    7.8919E+00    3.0840E+00
  4.4743E+00    8.3708E+00    3.0840E+00
  3.6323E+00    8.7690E+00    3.0840E+00
  2.7552E+00    9.0828E+00    3.0840E+00
  1.8517E+00    9.3092E+00    3.0840E+00
  9.3030E-01    9.4458E+00    3.0840E+00
  0.0000E+00    9.4915E+00    3.0840E+00
  9.1759E+00    9.0370E-01    3.8192E+00
  9.0432E+00    1.7988E+00    3.8192E+00
  8.8233E+00    2.6765E+00    3.8192E+00
  8.5185E+00    3.5285E+00    3.8192E+00
  8.1316E+00    4.3464E+00    3.8192E+00
  7.6664E+00    5.1225E+00    3.8192E+00
  7.1274E+00    5.8493E+00    3.8192E+00
  6.5197E+00    6.5197E+00    3.8192E+00
  5.8493E+00    7.1274E+00    3.8192E+00
  5.1225E+00    7.6664E+00    3.8192E+00
  4.3464E+00    8.1316E+00    3.8192E+00
  3.5285E+00    8.5185E+00    3.8192E+00
  2.6765E+00    8.8233E+00    3.8192E+00
  1.7988E+00    9.0432E+00    3.8192E+00
  9.0370E-01    9.1759E+00    3.8192E+00
 -0.0000E+00    9.2203E+00    3.8192E+00
  8.8494E+00    8.7160E-01    4.5308E+00
  8.7214E+00    1.7348E+00    4.5308E+00
  8.5093E+00    2.5813E+00    4.5308E+00
  8.2154E+00    3.4029E+00    4.5308E+00
  7.8423E+00    4.1918E+00    4.5308E+00
  7.3936E+00    4.9403E+00    4.5308E+00
  6.8738E+00    5.6412E+00    4.5308E+00
  6.2878E+00    6.2878E+00    4.5308E+00
  5.6412E+00    6.8738E+00    4.5308E+00
  4.9403E+00    7.3936E+00    4.5308E+00
  4.1918E+00    7.8423E+00    4.5308E+00
  3.4029E+00    8.2154E+00    4.5308E+00
  2.5813E+00    8.5093E+00    4.5308E+00
  1.7348E+00    8.7214E+00    4.5308E+00
  8.7160E-01    8.8494E+00    4.5308E+00
  0.0000E+00    8.8922E+00    4.5308E+00
  8.4684E+00    8.3410E-01    5.2145E+00
  8.3458E+00    1.6601E+00    5.2145E+00
  8.1429E+00    2.4701E+00    5.2145E+00
  7.8616E+00    3.2564E+00    5.2145E+00
  7.5046E+00    4.0113E+00    5.2145E+00
  7.0753E+00    4.7275E+00    5.2145E+00
  6.5778E+00    5.3983E+00    5.2145E+00
  6.0170E+00    6.0170E+00    5.2145E+00
  5.3983E+00    6.5778E+00    5.2145E+00
  4.7275E+00    7.0753E+00    5.2145E+00
  4.0113E+00    7.5046E+00    5.2145E+00
  3.2564E+00    7.8616E+00    5.2145E+00
  2.4701E+00    8.1429E+00    5.2145E+00
  1.6601E+00    8.3458E+00    5.2145E+00
  8.3410E-01    8.4684E+00    5.2145E+00
  0.0000E+00    8.5093E+00    5.2145E+00
  8.0351E+00    7.9140E-01    5.8661E+00
  7.9189E+00    1.5752E+00    5.8661E+00
  7.7263E+00    2.3438E+00    5.8661E+00
  7.4594E+00    3.0898E+00    5.8661E+00
  7.1206E+00    3.8061E+00    5.8661E+00
  6.7133E+00    4.4857E+00    5.8661E+00
  6.2413E+00    5.1221E+00    5.8661E+00
  5.7092E+00    5.7092E+00    5.8661E+00
  5.1221E+00    6.2413E+00    5.8661E+00
  4.4857E+00    6.7133E+00    5.8661E+00
  3.8061E+00    7.1206E+00    5.8661E+00
  3.0898E+00    7.4594E+00    5.8661E+00
  2.3438E+00    7.7263E+00    5.8661E+00
  1.5752E+00    7.9189E+00    5.8661E+00
  7.9140E-01    8.0351E+00    5.8661E+00
 -0.0000E+00    8.0740E+00    5.8661E+00
  7.5523E+00    7.4380E-01    6.4815E+00
  7.4430E+00    1.4805E+00    6.4815E+00
  7.2621E+00    2.2029E+00    6.4815E+00
  7.0112E+00    2.9041E+00    6.4815E+00
  6.6928E+00    3.5774E+00    6.4815E+00
  6.3099E+00    4.2161E+00    6.4815E+00
  5.8663E+00    4.8143E+00    6.4815E+00
  5.3661E+00    5.3661E+00    6.4815E+00
  4.8143E+00    5.8663E+00    6.4815E+00
  4.2161E+00    6.3099E+00    6.4815E+00
  3.5774E+00    6.6928E+00    6.4815E+00
  2.9041E+00    7.0112E+00    6.4815E+00
  2.2029E+00    7.2621E+00    6.4815E+00
  1.4805E+00    7.4430E+00    6.4815E+00
  7.4380E-01    7.5523E+00    6.4815E+00
  0.0000E+00    7.5889E+00    6.4815E+00
  7.0229E+00    6.9170E-01    7.0569E+00
  6.9213E+00    1.3767E+00    7.0569E+00
  6.7531E+00    2.0485E+00    7.0569E+00
  6.5197E+00    2.7006E+00    7.0569E+00
  6.2237E+00    3.3266E+00    7.0569E+00
  5.8676E+00    3.9206E+00    7.0569E+00
  5.4551E+00    4.4769E+00    7.0569E+00
  4.9900E+00    4.9900E+00    7.0569E+00
  4.4769E+00    5.4551E+00    7.0569E+00
  3.9206E+00    5.8676E+00    7.0569E+00
  3.3266E+00    6.2237E+00    7.0569E+00
  2.7006E+00    6.5197E+00    7.0569E+00
  2.0485E+00    6.7531E+00    7.0569E+00
  1.3767E+00    6.9213E+00    7.0569E+00
  6.9170E-01    7.0229E+00    7.0569E+00
  0.0000E+00    7.0569E+00    7.0569E+00
  6.4503E+00    6.3530E-01    7.5889E+00
  6.3570E+00    1.2645E+00    7.5889E+00
  6.2024E+00    1.8815E+00    7.5889E+00
  5.9881E+00    2.4804E+00    7.5889E+00
  5.7162E+00    3.0554E+00    7.5889E+00
  5.3892E+00    3.6009E+00    7.5889E+00
  5.0103E+00    4.1118E+00    7.5889E+00
  4.5831E+00    4.5831E+00    7.5889E+00
  4.1118E+00    5.0103E+00    7.5889E+00
[...]
POINT_DATA           578  
VECTORS deplacement   float64  
  6.1160E-02    0.0000E+00    0.0000E+00
  6.1156E-02    0.0000E+00   -5.5223E-04
  9.2234E-04    0.0000E+00   -2.6841E-02
  8.8462E-04    0.0000E+00   -2.6829E-02
  5.1290E-02    0.0000E+00   -9.0411E-04
  4.2743E-02    0.0000E+00   -1.8837E-03
  3.5466E-02    0.0000E+00   -3.3001E-03
  2.9280E-02    0.0000E+00   -5.0215E-03
  2.3980E-02    0.0000E+00   -6.9571E-03
  1.9430E-02    0.0000E+00   -9.0385E-03
  1.5541E-02    0.0000E+00   -1.1201E-02
  1.2241E-02    0.0000E+00   -1.3391E-02
  9.4694E-03    0.0000E+00   -1.5562E-02
  7.1732E-03    0.0000E+00   -1.7673E-02
  5.3046E-03    0.0000E+00   -1.9680E-02
  3.8152E-03    0.0000E+00   -2.1555E-02
  2.6738E-03    0.0000E+00   -2.3247E-02
  1.8334E-03    0.0000E+00   -2.4729E-02
  1.2636E-03    0.0000E+00   -2.5942E-02
  5.1256E-02    0.0000E+00   -4.2517E-04
  4.2679E-02    0.0000E+00   -1.4771E-03
  3.5385E-02    0.0000E+00   -2.9592E-03
  2.9186E-02    0.0000E+00   -4.7293E-03
  2.3877E-02    0.0000E+00   -6.7060E-03
  1.9321E-02    0.0000E+00   -8.8237E-03
  1.5430E-02    0.0000E+00   -1.1017E-02
  1.2129E-02    0.0000E+00   -1.3237E-02
  9.3593E-03    0.0000E+00   -1.5434E-02
  7.0658E-03    0.0000E+00   -1.7566E-02
  5.2039E-03    0.0000E+00   -1.9594E-02
  3.7237E-03    0.0000E+00   -2.1488E-02
  2.5918E-03    0.0000E+00   -2.3197E-02
  1.7634E-03    0.0000E+00   -2.4694E-02
  1.2093E-03    0.0000E+00   -2.5920E-02
  5.8727E-02   -4.7808E-05   -7.8741E-04
  5.4069E-02   -7.0801E-04   -2.8174E-03
  4.8245E-02   -2.1533E-03   -5.8652E-03
  4.2152E-02   -4.3291E-03   -9.6876E-03
  3.6195E-02   -7.1478E-03   -1.4092E-02
  3.0574E-02   -1.0518E-02   -1.8915E-02
  2.5342E-02   -1.4397E-02   -2.4017E-02
  2.0495E-02   -1.8786E-02   -2.9277E-02
  1.6014E-02   -2.3720E-02   -3.4580E-02
  1.1901E-02   -2.9252E-02   -3.9806E-02
  8.1912E-03   -3.5422E-02   -4.4824E-02
  5.0180E-03   -4.2113E-02   -4.9468E-02
  2.5232E-03   -4.9084E-02   -5.3547E-02
  8.4845E-04   -5.5815E-02   -5.6820E-02
  5.7949E-05   -6.1370E-02   -5.8997E-02
  0.0000E+00   -6.4334E-02   -5.9826E-02
  5.8735E-02   -1.9100E-04   -1.2643E-03
  5.4106E-02   -9.1388E-04   -3.2216E-03
  4.8311E-02   -2.3806E-03   -6.1889E-03
  4.2244E-02   -4.5562E-03   -9.9406E-03
  3.6308E-02   -7.3617E-03   -1.4280E-02
  3.0705E-02   -1.0716E-02   -1.9045E-02
  2.5491E-02   -1.4580E-02   -2.4092E-02
  2.0662E-02   -1.8955E-02   -2.9300E-02
  1.6204E-02   -2.3877E-02   -3.4548E-02
  1.2114E-02   -2.9397E-02   -3.9716E-02
  8.4293E-03   -3.5552E-02   -4.4667E-02
  5.2765E-03   -4.2223E-02   -4.9235E-02
  2.7866E-03   -4.9168E-02   -5.3230E-02
  1.0920E-03   -5.5866E-02   -5.6408E-02
  2.3457E-04   -6.1389E-02   -5.8482E-02
  0.0000E+00   -6.4330E-02   -5.9213E-02
  4.9791E-02   -1.2513E-04   -1.5937E-03
  4.6316E-02   -6.7198E-04   -3.5030E-03
  4.1719E-02   -1.8422E-03   -6.4203E-03
  3.6670E-02   -3.6574E-03   -1.0121E-02
  3.1571E-02   -6.0726E-03   -1.4415E-02
  2.6640E-02   -9.0292E-03   -1.9136E-02
  2.1984E-02   -1.2485E-02   -2.4142E-02
  1.7639E-02   -1.6426E-02   -2.9309E-02
  1.3637E-02   -2.0847E-02   -3.4516E-02
  1.0001E-02   -2.5758E-02   -3.9640E-02
  6.7948E-03   -3.1116E-02   -4.4541E-02
  4.1180E-03   -3.6779E-02   -4.9056E-02
  2.0711E-03   -4.2486E-02   -5.2990E-02
  7.4474E-04   -4.7713E-02   -5.6105E-02
  1.3304E-04   -5.1607E-02   -5.8119E-02
  0.0000E+00   -5.3237E-02   -5.8810E-02
  4.1760E-02   -8.3917E-05   -2.5160E-03
  3.9204E-02   -4.8939E-04   -4.3103E-03
  3.5617E-02   -1.4050E-03   -7.0859E-03
  3.1488E-02   -2.8928E-03   -1.0647E-02
  2.7173E-02   -4.9396E-03   -1.4806E-02
  2.2894E-02   -7.5072E-03   -1.9401E-02
  1.8789E-02   -1.0554E-02   -2.4287E-02
  1.4936E-02   -1.4049E-02   -2.9335E-02
  1.1388E-02   -1.7965E-02   -3.4420E-02
  8.2015E-03   -2.2264E-02   -3.9414E-02
  5.4449E-03   -2.6861E-02   -4.4175E-02
  3.1999E-03   -3.1598E-02   -4.8536E-02
  1.5430E-03   -3.6197E-02   -5.2308E-02
  5.1877E-04   -4.0199E-02   -5.5258E-02
  7.8808E-05   -4.2912E-02   -5.7127E-02
  0.0000E+00   -4.3793E-02   -5.7744E-02
  3.4761E-02   -6.3685E-05   -3.8763E-03
  3.2859E-02   -3.6917E-04   -5.5248E-03
  3.0071E-02   -1.0858E-03   -8.1114E-03
  2.6730E-02   -2.2936E-03   -1.1467E-02
  2.3124E-02   -4.0078E-03   -1.5424E-02
  1.9465E-02   -6.2066E-03   -1.9821E-02
  1.5904E-02   -8.8517E-03   -2.4514E-02
  1.2540E-02   -1.1903E-02   -2.9369E-02
  9.4482E-03   -1.5316E-02   -3.4257E-02
  6.6981E-03   -1.9024E-02   -3.9045E-02
  4.3606E-03   -2.2918E-02   -4.3588E-02
  2.5007E-03   -2.6834E-02   -4.7722E-02
  1.1701E-03   -3.0518E-02   -5.1261E-02
  3.7985E-04   -3.3585E-02   -5.3994E-02
  5.8428E-05   -3.5542E-02   -5.5698E-02
  0.0000E+00   -3.6157E-02   -5.6263E-02
  2.8757E-02   -4.9139E-05   -5.5399E-03
  2.7304E-02   -2.8492E-04   -7.0399E-03
  2.5113E-02   -8.5027E-04   -9.4185E-03
  2.2417E-02   -1.8273E-03   -1.2533E-02
  1.9433E-02   -3.2473E-03   -1.6236E-02
  1.6350E-02   -5.1016E-03   -2.0375E-02
  1.3313E-02   -7.3582E-03   -2.4809E-02
  1.0427E-02   -9.9764E-03   -2.9404E-02
  7.7826E-03   -1.2894E-02   -3.4026E-02
  5.4496E-03   -1.6038E-02   -3.8541E-02
  3.4942E-03   -1.9293E-02   -4.2804E-02
  1.9716E-03   -2.2495E-02   -4.6654E-02
  9.0809E-04   -2.5433E-02   -4.9922E-02
  2.9390E-04   -2.7808E-02   -5.2418E-02
  4.7493E-05   -2.9310E-02   -5.3972E-02
  0.0000E+00   -2.9810E-02   -5.4494E-02
  2.3582E-02   -3.8256E-05   -7.4214E-03
  2.2455E-02   -2.2272E-04   -8.7754E-03
  2.0723E-02   -6.7066E-04   -1.0937E-02
  1.8553E-02   -1.4588E-03   -1.3789E-02
  1.6110E-02   -2.6234E-03   -1.7202E-02
  1.3550E-02   -4.1636E-03   -2.1038E-02
  1.1004E-02   -6.0559E-03   -2.5160E-02
  8.5768E-03   -8.2585E-03   -2.9438E-02
  6.3546E-03   -1.0710E-02   -3.3738E-02
  4.4093E-03   -1.3329E-02   -3.7927E-02
  2.7978E-03   -1.6009E-02   -4.1862E-02
  1.5621E-03   -1.8603E-02   -4.5395E-02
  7.1641E-04   -2.0932E-02   -4.8367E-02
  2.3483E-04   -2.2792E-02   -5.0625E-02
  3.8962E-05   -2.3981E-02   -5.2034E-02
  0.0000E+00   -2.4379E-02   -5.2509E-02
  1.9123E-02   -3.0817E-05   -9.4513E-03
  1.8244E-02   -1.7590E-04   -1.0662E-02
  1.6877E-02   -5.3114E-04   -1.2604E-02
  1.5142E-02   -1.1628E-03   -1.5181E-02
  1.3162E-02   -2.1076E-03   -1.8282E-02
  1.1069E-02   -3.3686E-03   -2.1781E-02
  8.9721E-03   -4.9280E-03   -2.5552E-02
  6.9658E-03   -6.7483E-03   -2.9470E-02
  5.1319E-03   -8.7712E-03   -3.3406E-02
  3.5352E-03   -1.0920E-02   -3.7230E-02
  2.2254E-03   -1.3096E-02   -4.0808E-02
  1.2339E-03   -1.5175E-02   -4.4001E-02
  5.6479E-04   -1.7014E-02   -4.6671E-02
  1.8645E-04   -1.8470E-02   -4.8690E-02
  3.2174E-05   -1.9405E-02   -4.9950E-02
  0.0000E+00   -1.9724E-02   -5.0378E-02
  1.5303E-02   -2.5185E-05   -1.1566E-02
  1.4619E-02   -1.3919E-04   -1.2636E-02
  1.3547E-02   -4.1910E-04   -1.4359E-02
  1.2171E-02   -9.2126E-04   -1.6658E-02
  1.0590E-02   -1.6766E-03   -1.9432E-02
  8.9050E-03   -2.6928E-03   -2.2573E-02
  7.2066E-03   -3.9565E-03   -2.5968E-02
  5.5795E-03   -5.4332E-03   -2.9497E-02
  4.0929E-03   -7.0725E-03   -3.3041E-02
  2.8044E-03   -8.8055E-03   -3.6477E-02
  1.7556E-03   -1.0546E-02   -3.9679E-02
  9.6885E-04   -1.2193E-02   -4.2525E-02
  4.4270E-04   -1.3635E-02   -4.4892E-02
  1.4733E-04   -1.4767E-02   -4.6674E-02
  2.6320E-05   -1.5492E-02   -4.7785E-02
  0.0000E+00   -1.5739E-02   -4.8161E-02
  1.2058E-02   -2.0454E-05   -1.3709E-02
  1.1529E-02   -1.0968E-04   -1.4644E-02
  1.0696E-02   -3.2843E-04   -1.6154E-02
  9.6199E-03   -7.2205E-04   -1.8172E-02
  8.3752E-03   -1.3180E-03   -2.0617E-02
  7.0409E-03   -2.1232E-03   -2.3393E-02
  5.6922E-03   -3.1273E-03   -2.6396E-02
  4.3971E-03   -4.3027E-03   -2.9521E-02
  3.2158E-03   -5.6053E-03   -3.2657E-02
  2.1948E-03   -6.9779E-03   -3.5692E-02
  1.3686E-03   -8.3476E-03   -3.8513E-02
  7.5220E-04   -9.6360E-03   -4.1011E-02
  3.4297E-04   -1.0755E-02   -4.3082E-02
  1.1468E-04   -1.1625E-02   -4.4634E-02
  2.1247E-05   -1.2181E-02   -4.5598E-02
  0.0000E+00   -1.2370E-02   -4.5924E-02
  9.3283E-03   -1.7047E-05   -1.5838E-02
  8.9233E-03   -8.6517E-05   -1.6644E-02
  8.2851E-03   -2.5522E-04   -1.7945E-02
  7.4579E-03   -5.5899E-04   -1.9689E-02
  6.4965E-03   -1.0203E-03   -2.1806E-02
  5.4608E-03   -1.6463E-03   -2.4215E-02
  4.4111E-03   -2.4282E-03   -2.6825E-02
  3.4024E-03   -3.3441E-03   -2.9542E-02
  2.4829E-03   -4.3574E-03   -3.2266E-02
  1.6906E-03   -5.4219E-03   -3.4898E-02
  1.0518E-03   -6.4795E-03   -3.7340E-02
  5.7743E-04   -7.4685E-03   -3.9496E-02
  2.6384E-04   -8.3224E-03   -4.1276E-02
  8.9273E-05   -8.9828E-03   -4.2607E-02
  1.7340E-05   -9.4004E-03   -4.3430E-02
  0.0000E+00   -9.5413E-03   -4.3707E-02
  7.0684E-03   -1.3685E-05   -1.7904E-02
  6.7647E-03   -6.6964E-05   -1.8586E-02
  6.2835E-03   -1.9513E-04   -1.9690E-02
  5.6581E-03   -4.2583E-04   -2.1171E-02
  4.9298E-03   -7.7618E-04   -2.2971E-02
  4.1433E-03   -1.2524E-03   -2.5022E-02
  3.3447E-03   -1.8477E-03   -2.7246E-02
  2.5768E-03   -2.5453E-03   -2.9561E-02
  1.8773E-03   -3.3163E-03   -3.1882E-02
  1.2761E-03   -4.1236E-03   -3.4121E-02
  7.9264E-04   -4.9231E-03   -3.6193E-02
  4.3523E-04   -5.6671E-03   -3.8019E-02
  1.9911E-04   -6.3080E-03   -3.9524E-02
  6.8106E-05   -6.8002E-03   -4.0646E-02
  1.3641E-05   -7.1095E-03   -4.1337E-02
  0.0000E+00   -7.2133E-03   -4.1569E-02
  5.2276E-03   -1.1022E-05   -1.9872E-02
  5.0045E-03   -5.1069E-05   -2.0437E-02
  4.6511E-03   -1.4622E-04   -2.1353E-02
  4.1902E-03   -3.1706E-04   -2.2584E-02
  3.6514E-03   -5.7683E-04   -2.4082E-02
  3.0692E-03   -9.2969E-04   -2.5790E-02
  2.4772E-03   -1.3714E-03   -2.7644E-02
  1.9077E-03   -1.8886E-03   -2.9573E-02
  1.3891E-03   -2.4598E-03   -3.1506E-02
  9.4406E-04   -3.0565E-03   -3.3369E-02
  5.8687E-04   -3.6461E-03   -3.5091E-02
  3.2326E-04   -4.1930E-03   -3.6604E-02
  1.4893E-04   -4.6635E-03   -3.7852E-02
  5.1857E-05   -5.0246E-03   -3.8780E-02
  1.1045E-05   -5.2506E-03   -3.9351E-02
  0.0000E+00   -5.3266E-03   -3.9543E-02
  3.7608E-03   -9.2986E-06   -2.1709E-02
  3.6017E-03   -3.9191E-05   -2.2167E-02
  3.3484E-03   -1.0864E-04   -2.2909E-02
  3.0175E-03   -2.3237E-04   -2.3907E-02
  2.6303E-03   -4.2020E-04   -2.5124E-02
  2.2115E-03   -6.7465E-04   -2.6510E-02
  1.7854E-03   -9.9311E-04   -2.8016E-02
  1.3754E-03   -1.3655E-03   -2.9582E-02
  1.0022E-03   -1.7765E-03   -3.1151E-02
  6.8198E-04   -2.2052E-03   -3.2662E-02
  4.2530E-04   -2.6275E-03   -3.4057E-02
  2.3552E-04   -3.0191E-03   -3.5283E-02
  1.1022E-04   -3.3543E-03   -3.6290E-02
  3.9727E-05   -3.6122E-03   -3.7040E-02
  9.2761E-06   -3.7744E-03   -3.7503E-02
  0.0000E+00   -3.8296E-03   -3.7659E-02
  2.6355E-03   -7.7406E-06   -2.3370E-02
  2.5237E-03   -2.9885E-05   -2.3732E-02
  2.3463E-03   -7.9567E-05   -2.4319E-02
  2.1149E-03   -1.6709E-04   -2.5107E-02
  1.8441E-03   -2.9926E-04   -2.6068E-02
  1.5511E-03   -4.7806E-04   -2.7163E-02
  1.2528E-03   -7.0145E-04   -2.8352E-02
  9.6590E-04   -9.6228E-04   -2.9589E-02
  7.0474E-04   -1.2496E-03   -3.0827E-02
  4.8068E-04   -1.5491E-03   -3.2019E-02
  3.0104E-04   -1.8435E-03   -3.3119E-02
  1.6817E-04   -2.1158E-03   -3.4084E-02
  8.0030E-05   -2.3486E-03   -3.4876E-02
  3.0065E-05   -2.5269E-03   -3.5465E-02
  7.6636E-06   -2.6388E-03   -3.5828E-02
  0.0000E+00   -2.6765E-03   -3.5950E-02
  1.8074E-03   -6.5528E-06   -2.4823E-02
  1.7311E-03   -2.2867E-05   -2.5100E-02
  1.6099E-03   -5.7979E-05   -2.5550E-02
  1.4516E-03   -1.1891E-04   -2.6155E-02
  1.2665E-03   -2.1013E-04   -2.6892E-02
  1.0660E-03   -3.3316E-04   -2.7732E-02
  8.6193E-04   -4.8643E-04   -2.8644E-02
  6.6557E-04   -6.6512E-04   -2.9593E-02
  4.8680E-04   -8.6171E-04   -3.0543E-02
  3.3339E-04   -1.0661E-03   -3.1456E-02
  2.1015E-04   -1.2670E-03   -3.2298E-02
  1.1880E-04   -1.4524E-03   -3.3036E-02
  5.7809E-05   -1.6108E-03   -3.3642E-02
  2.2760E-05   -1.7318E-03   -3.4093E-02
  6.3928E-06   -1.8075E-03   -3.4370E-02
  0.0000E+00   -1.8333E-03   -3.4463E-02
  1.2464E-03   -5.4483E-06   -2.6011E-02
  1.1946E-03   -1.7685E-05   -2.6218E-02
  1.1115E-03   -4.2735E-05   -2.6556E-02
  1.0028E-03   -8.5394E-05   -2.7010E-02
  8.7542E-04   -1.4877E-04   -2.7565E-02
  7.3752E-04   -2.3388E-04   -2.8196E-02
  5.9716E-04   -3.3947E-04   -2.8882E-02
  4.6214E-04   -4.6233E-04   -2.9594E-02
  3.3920E-04   -5.9720E-04   -3.0307E-02
  2.3351E-04   -7.3731E-04   -3.0992E-02
  1.4845E-04   -8.7485E-04   -3.1624E-02
  8.5168E-05   -1.0017E-03   -3.2178E-02
  4.2587E-05   -1.1100E-03   -3.2632E-02
  1.7615E-05   -1.1929E-03   -3.2970E-02
  5.4611E-06   -1.2451E-03   -3.3179E-02
  0.0000E+00   -1.2634E-03   -3.3250E-02
  9.0951E-04   -6.6757E-06   -2.6894E-02
  8.7117E-04   -1.7984E-05   -2.7054E-02
  8.1062E-04   -3.8357E-05   -2.7311E-02
  7.3192E-04   -7.1235E-05   -2.7656E-02
  6.4009E-04   -1.1861E-04   -2.8075E-02
  5.4082E-04   -1.8118E-04   -2.8552E-02
  4.3987E-04   -2.5800E-04   -2.9067E-02
  3.4272E-04   -3.4671E-04   -2.9603E-02
  2.5408E-04   -4.4361E-04   -3.0138E-02
  1.7769E-04   -5.4374E-04   -3.0651E-02
  1.1574E-04   -6.4165E-04   -3.1124E-02
  6.9126E-05   -7.3159E-04   -3.1537E-02
  3.6981E-05   -8.0806E-04   -3.1875E-02
  1.7168E-05   -8.6622E-04   -3.2126E-02
  6.2266E-06   -9.0268E-04   -3.2280E-02
  0.0000E+00   -9.1508E-04   -3.2332E-02
  8.7078E-04    4.3407E-06   -2.6882E-02
  8.3059E-04    3.0454E-06   -2.7043E-02
  7.6762E-04   -8.4913E-06   -2.7301E-02
  6.8623E-04   -3.3843E-05   -2.7647E-02
  5.9170E-04   -7.5428E-05   -2.8068E-02
  4.9028E-04   -1.3385E-04   -2.8546E-02
  3.8793E-04   -2.0827E-04   -2.9065E-02
  2.9057E-04   -2.9611E-04   -2.9602E-02
  2.0322E-04   -3.9345E-04   -3.0140E-02
  1.2978E-04   -4.9506E-04   -3.0655E-02
  7.2588E-05   -5.9508E-04   -3.1130E-02
  3.2345E-05   -6.8729E-04   -3.1546E-02
  8.1505E-06   -7.6588E-04   -3.1886E-02
 -2.5981E-06   -8.2568E-04   -3.2137E-02
 -3.7566E-06   -8.6305E-04   -3.2292E-02
  0.0000E+00   -8.7557E-04   -3.2345E-02
  4.9750E-02   -2.1392E-05   -1.1584E-03
  4.6257E-02   -5.0705E-04   -3.1308E-03
  4.1637E-02   -1.6471E-03   -6.1173E-03
  3.6567E-02   -3.4537E-03   -9.8848E-03
  3.1450E-02   -5.8717E-03   -1.4239E-02
  2.6502E-02   -8.8372E-03   -1.9017E-02
  2.1829E-02   -1.2302E-02   -2.4076E-02
  1.7468E-02   -1.6254E-02   -2.9296E-02
  1.3448E-02   -2.0687E-02   -3.4556E-02
  9.7956E-03   -2.5609E-02   -3.9736E-02
  6.5742E-03   -3.0981E-02   -4.4702E-02
  3.8902E-03   -3.6661E-02   -4.9287E-02
  1.8497E-03   -4.2390E-02   -5.3300E-02
  5.5712E-04   -4.7640E-02   -5.6499E-02
  1.7688E-05   -5.1556E-02   -5.8592E-02
  0.0000E+00   -5.3192E-02   -5.9349E-02
  4.1694E-02   -7.1762E-06   -2.1305E-03
  3.9126E-02   -3.5766E-04   -3.9711E-03
  3.5523E-02   -1.2397E-03   -6.8053E-03
  3.1377E-02   -2.7111E-03   -1.0425E-02
  2.7045E-02   -4.7528E-03   -1.4640E-02
  2.2751E-02   -7.3226E-03   -1.9289E-02
  1.8632E-02   -1.0375E-02   -2.4226E-02
  1.4765E-02   -1.3878E-02   -2.9324E-02
  1.1204E-02   -1.7803E-02   -3.4461E-02
  8.0063E-03   -2.2113E-02   -3.9510E-02
  5.2434E-03   -2.6724E-02   -4.4329E-02
  3.0005E-03   -3.1475E-02   -4.8754E-02
  1.3591E-03   -3.6092E-02   -5.2592E-02
  3.7348E-04   -4.0111E-02   -5.5608E-02
  5.5166E-06   -4.2840E-02   -5.7533E-02
  0.0000E+00   -4.3724E-02   -5.8173E-02
  3.4677E-02   -6.2719E-06   -3.5471E-03
  3.2768E-02   -2.6449E-04   -5.2278E-03
  2.9968E-02   -9.4717E-04   -7.8582E-03
  2.6614E-02   -2.1347E-03   -1.1263E-02
  2.2994E-02   -3.8384E-03   -1.5270E-02
  1.9322E-02   -6.0343E-03   -1.9716E-02
  1.5748E-02   -8.6809E-03   -2.4457E-02
  1.2374E-02   -1.1738E-02   -2.9360E-02
  9.2730E-03   -1.5157E-02   -3.4298E-02
  6.5172E-03   -1.8874E-02   -3.9137E-02
  4.1794E-03   -2.2779E-02   -4.3733E-02
  2.3277E-03   -2.6709E-02   -4.7923E-02
  1.0169E-03   -3.0405E-02   -5.1517E-02
  2.6555E-04   -3.3486E-02   -5.4300E-02
  2.9741E-06   -3.5455E-02   -5.6040E-02
  0.0000E+00   -3.6074E-02   -5.6612E-02
  2.8661E-02   -3.2918E-06   -5.2568E-03
  2.7203E-02   -1.9918E-04   -6.7803E-03
  2.5002E-02   -7.3375E-04   -9.1928E-03
  2.2296E-02   -1.6892E-03   -1.2348E-02
  1.9302E-02   -3.0962E-03   -1.6094E-02
  1.6209E-02   -4.9438E-03   -2.0278E-02
  1.3162E-02   -7.1989E-03   -2.4757E-02
  1.0269E-02   -9.8190E-03   -2.9398E-02
  7.6201E-03   -1.2741E-02   -3.4067E-02
  5.2855E-03   -1.5892E-02   -3.8630E-02
  3.3348E-03   -1.9155E-02   -4.2941E-02
  1.8236E-03   -2.2367E-02   -4.6839E-02
  7.8175E-04   -2.5314E-02   -5.0152E-02
  2.0239E-04   -2.7699E-02   -5.2687E-02
  1.6205E-06   -2.9210E-02   -5.4263E-02
  0.0000E+00   -2.9713E-02   -5.4794E-02
  2.3478E-02   -1.3023E-06   -7.1772E-03
  2.2346E-02   -1.5177E-04   -8.5493E-03
  2.0609E-02   -5.7215E-04   -1.0737E-02
  1.8431E-02   -1.3393E-03   -1.3624E-02
  1.5980E-02   -2.4895E-03   -1.7074E-02
  1.3413E-02   -4.0213E-03   -2.0950E-02
  1.0861E-02   -5.9092E-03   -2.5113E-02
  8.4288E-03   -8.1113E-03   -2.9433E-02
  6.2051E-03   -1.0565E-02   -3.3776E-02
  4.2617E-03   -1.3188E-02   -3.8007E-02
  2.6571E-03   -1.5874E-02   -4.1986E-02
  1.4350E-03   -1.8475E-02   -4.5559E-02
  6.1053E-04   -2.0812E-02   -4.8569E-02
  1.5794E-04   -2.2678E-02   -5.0857E-02
 -2.7669E-07   -2.3873E-02   -5.2284E-02
  0.0000E+00   -2.4273E-02   -5.2765E-02
  1.9013E-02    1.3105E-07   -9.2414E-03
  1.8131E-02   -1.1611E-04   -1.0466E-02
  1.6760E-02   -4.4665E-04   -1.2430E-02
  1.5019E-02   -1.0587E-03   -1.5036E-02
  1.3035E-02   -1.9890E-03   -1.8169E-02
  1.0937E-02   -3.2399E-03   -2.1702E-02
  8.8364E-03   -4.7936E-03   -2.5510E-02
  6.8283E-03   -6.6112E-03   -2.9466E-02
  4.9954E-03   -8.6342E-03   -3.3440E-02
  3.4028E-03   -1.0785E-02   -3.7303E-02
  2.1019E-03   -1.2965E-02   -4.0918E-02
  1.1245E-03   -1.5048E-02   -4.4146E-02
  4.7529E-04   -1.6892E-02   -4.6846E-02
  1.2231E-04   -1.8353E-02   -4.8890E-02
 -1.3926E-06   -1.9291E-02   -5.0165E-02
  0.0000E+00   -1.9612E-02   -5.0598E-02
  1.5190E-02    1.1294E-06   -1.1387E-02
  1.4505E-02   -8.8311E-05   -1.2468E-02
  1.3431E-02   -3.4603E-04   -1.4209E-02
  1.2051E-02   -8.3013E-04   -1.6532E-02
  1.0467E-02   -1.5713E-03   -1.9333E-02
  8.7788E-03   -2.5773E-03   -2.2505E-02
  7.0792E-03   -3.8337E-03   -2.5932E-02
  5.4524E-03   -5.3064E-03   -2.9495E-02
  3.9683E-03   -6.9441E-03   -3.3072E-02
  2.6858E-03   -8.6774E-03   -3.6541E-02
  1.6466E-03   -1.0420E-02   -3.9775E-02
  8.7361E-04   -1.2070E-02   -4.2650E-02
  3.6608E-04   -1.3515E-02   -4.5042E-02
  9.3038E-05   -1.4649E-02   -4.6844E-02
 -2.0790E-06   -1.5377E-02   -4.7967E-02
  0.0000E+00   -1.5625E-02   -4.8348E-02
  1.1946E-02    2.0664E-06   -1.3558E-02
  1.1416E-02   -6.5949E-05   -1.4502E-02
  1.0581E-02   -2.6509E-04   -1.6026E-02
  9.5032E-03   -6.4206E-04   -1.8065E-02
  8.2571E-03   -1.2242E-03   -2.0533E-02
  6.9219E-03   -2.0191E-03   -2.3334E-02
  5.5732E-03   -3.0156E-03   -2.6366E-02
  4.2800E-03   -4.1858E-03   -2.9519E-02
  3.1028E-03   -5.4856E-03   -3.2684E-02
  2.0885E-03   -6.8571E-03   -3.5748E-02
  1.2723E-03   -8.2272E-03   -3.8595E-02
  6.6930E-04   -9.5166E-03   -4.1118E-02
  2.7684E-04   -1.0638E-02   -4.3209E-02
  6.8591E-05   -1.1509E-02   -4.4777E-02
 -3.0204E-06   -1.2066E-02   -4.5751E-02
  0.0000E+00   -1.2256E-02   -4.6081E-02
  9.2179E-03    2.6783E-06   -1.5711E-02
  8.8125E-03   -4.8503E-05   -1.6525E-02
  8.1736E-03   -2.0011E-04   -1.7838E-02
  7.3457E-03   -4.8891E-04   -1.9599E-02
  6.3841E-03   -9.3733E-04   -2.1735E-02
  5.3489E-03   -1.5530E-03   -2.4166E-02
  4.3008E-03   -2.3269E-03   -2.6799E-02
  3.2952E-03   -3.2370E-03   -2.9540E-02