# vtk DataFile Version 3.0 
vtk output 
ASCII 
DATASET UNSTRUCTURED_GRID 
POINTS            68 float
  0.0000E+00    0.0000E+00    0.0000E+00
  8.3333E-01    0.0000E+00    0.0000E+00
  1.6667E+00    0.0000E+00    0.0000E+00
  2.5000E+00    0.0000E+00    0.0000E+00
  3.3333E+00    0.0000E+00    0.0000E+00
  3.7500E+00    0.0000E+00    0.0000E+00
  4.1667E+00    0.0000E+00    0.0000E+00
  4.5833E+00    0.0000E+00    0.0000E+00
  5.0000E+00    0.0000E+00    0.0000E+00
  5.4167E+00    0.0000E+00    0.0000E+00
  5.8333E+00    0.0000E+00    0.0000E+00
  6.2500E+00    0.0000E+00    0.0000E+00
  6.6667E+00    0.0000E+00    0.0000E+00
  7.5000E+00    0.0000E+00    0.0000E+00
  8.3333E+00    0.0000E+00    0.0000E+00
  9.1667E+00    0.0000E+00    0.0000E+00
  1.0000E+01    0.0000E+00    0.0000E+00
  1.0000E+01    1.0000E+00    0.0000E+00
  9.5833E+00    1.0000E+00    0.0000E+00
  9.1667E+00    1.0000E+00    0.0000E+00
  8.7500E+00    1.0000E+00    0.0000E+00
  8.3333E+00    1.0000E+00    0.0000E+00
  7.5000E+00    1.0000E+00    0.0000E+00
  6.6667E+00    1.0000E+00    0.0000E+00
  5.8333E+00    1.0000E+00    0.0000E+00
  5.0000E+00    1.0000E+00    0.0000E+00
  4.1667E+00    1.0000E+00    0.0000E+00
  3.3333E+00    1.0000E+00    0.0000E+00
  2.5000E+00    1.0000E+00    0.0000E+00
  1.6667E+00    1.0000E+00    0.0000E+00
  1.2500E+00    1.0000E+00    0.0000E+00
  8.3333E-01    1.0000E+00    0.0000E+00
  4.1667E-01    1.0000E+00    0.0000E+00
  0.0000E+00    1.0000E+00    0.0000E+00
  0.0000E+00    0.0000E+00    1.0000E-01
  8.3333E-01    0.0000E+00    1.0000E-01
  1.6667E+00    0.0000E+00    1.0000E-01
  2.5000E+00    0.0000E+00    1.0000E-01
  3.3333E+00    0.0000E+00    1.0000E-01
  3.7500E+00    0.0000E+00    1.0000E-01
  4.1667E+00    0.0000E+00    1.0000E-01
  4.5833E+00    0.0000E+00    1.0000E-01
  5.0000E+00    0.0000E+00    1.0000E-01
  5.4167E+00    0.0000E+00    1.0000E-01
  5.8333E+00    0.0000E+00    1.0000E-01
  6.2500E+00    0.0000E+00    1.0000E-01
  6.6667E+00    0.0000E+00    1.0000E-01
  7.5000E+00    0.0000E+00    1.0000E-01
  8.3333E+00    0.0000E+00    1.0000E-01
  9.1667E+00    0.0000E+00    1.0000E-01
  1.0000E+01    0.0000E+00    1.0000E-01
  1.0000E+01    1.0000E+00    1.0000E-01
  9.5833E+00    1.0000E+00    1.0000E-01
  9.1667E+00    1.0000E+00    1.0000E-01
  8.7500E+00    1.0000E+00    1.0000E-01
  8.3333E+00    1.0000E+00    1.0000E-01
  7.5000E+00    1.0000E+00    1.0000E-01
  6.6667E+00    1.0000E+00    1.0000E-01
  5.8333E+00    1.0000E+00    1.0000E-01
  5.0000E+00    1.0000E+00    1.0000E-01
  4.1667E+00    1.0000E+00    1.0000E-01
  3.3333E+00    1.0000E+00    1.0000E-01
  2.5000E+00    1.0000E+00    1.0000E-01
  1.6667E+00    1.0000E+00    1.0000E-01
  1.2500E+00    1.0000E+00    1.0000E-01
  8.3333E-01    1.0000E+00    1.0000E-01
  4.1667E-01    1.0000E+00    1.0000E-01
  0.0000E+00    1.0000E+00    1.0000E-01
CELLS          16        144 
          8           0           1          32          33          34          35          66          67 
          8           1           2          31          32          35          36          65          66 
          8           2           3          30          31          36          37          64          65 
          8           3           4          29          30          37          38          63          64 
          8           4           5          28          29          38          39          62          63 
          8           5           6          27          28          39          40          61          62 
          8           6           7          26          27          40          41          60          61 
          8           7           8          25          26          41          42          59          60 
          8           8           9          24          25          42          43          58          59 
          8           9          10          23          24          43          44          57          58 
          8          10          11          22          23          44          45          56          57 
          8          11          12          21          22          45          46          55          56 
          8          12          13          20          21          46          47          54          55 
          8          13          14          19          20          47          48          53          54 
          8          14          15          18          19          48          49          52          53 
          8          15          16          17          18          49          50          51          52 
CELL_TYPES     16
 12 
 12 
 12 
 12 
 12 
 12 
 12 
 12 
 12 
 12 
 12 
 12 
 12 
 12 
 12 
 12 
POINT_DATA            68  
VECTORS deplacement   float64  
  0.0000E+00    0.0000E+00    0.0000E+00
  5.7948E-03    1.8457E-03    7.9271E-02
 -1.6077E-02    7.2465E-04    3.0761E-01
 -8.4818E-02   -2.6508E-03    6.6207E-01
 -2.0951E-01   -1.1204E-02    1.1177E+00
 -2.9169E-01   -1.0730E-02    1.3780E+00
 -3.8949E-01   -1.0839E-02    1.6525E+00
 -5.0104E-01   -1.0991E-02    1.9399E+00
 -6.2531E-01   -1.1064E-02    2.2397E+00
 -7.6171E-01   -1.1092E-02    2.5506E+00
 -9.0972E-01   -1.1112E-02    2.8717E+00
 -1.0688E+00   -1.1125E-02    3.2018E+00
 -1.2383E+00   -1.1089E-02    3.5396E+00
 -1.6021E+00   -1.0280E-02    4.2308E+00
 -1.9911E+00   -9.9148E-03    4.9376E+00
 -2.3968E+00   -9.6709E-03    5.6539E+00
 -2.8108E+00   -9.4094E-03    6.3743E+00
 -2.8100E+00   -9.4683E-03    6.3732E+00
 -2.6032E+00   -9.6759E-03    6.0131E+00
 -2.3971E+00   -9.9264E-03    5.6534E+00
 -2.1926E+00   -1.0161E-02    5.2944E+00
 -1.9905E+00   -1.0308E-02    4.9365E+00
 -1.6007E+00   -1.1265E-02    4.2288E+00
 -1.2377E+00   -1.1864E-02    3.5379E+00
 -9.0943E-01   -1.2222E-02    2.8713E+00
 -6.2366E-01   -1.2488E-02    2.2383E+00
 -3.8660E-01   -1.2624E-02    1.6500E+00
 -2.0355E-01   -1.2110E-02    1.1200E+00
 -7.8104E-02   -9.3996E-03    6.6648E-01
 -8.4997E-03   -8.3135E-04    3.1003E-01
  3.3288E-03   -1.3057E-03    1.7507E-01
  6.4958E-03   -1.5808E-03    7.7265E-02
  4.1955E-03   -2.0275E-03    1.9035E-02
  0.0000E+00    0.0000E+00    0.0000E+00
  0.0000E+00    0.0000E+00    0.0000E+00
 -1.2902E-02   -1.8574E-03    7.7434E-02
 -5.1323E-02   -1.8421E-03    3.0115E-01
 -1.3344E-01   -4.7725E-03    6.4943E-01
 -2.6885E-01   -1.3004E-02    1.0982E+00
 -3.5512E-01   -1.2522E-02    1.3553E+00
 -4.5645E-01   -1.2415E-02    1.6267E+00
 -5.7116E-01   -1.2348E-02    1.9112E+00
 -6.9828E-01   -1.2274E-02    2.2080E+00
 -8.3724E-01   -1.2178E-02    2.5161E+00
 -9.8753E-01   -1.2069E-02    2.8345E+00
 -1.1486E+00   -1.1975E-02    3.1620E+00
 -1.3198E+00   -1.1894E-02    3.4974E+00
 -1.6860E+00   -1.0975E-02    4.1853E+00
 -2.0765E+00   -1.0372E-02    4.8896E+00
 -2.4831E+00   -9.8353E-03    5.6044E+00
 -2.8973E+00   -9.3418E-03    6.3244E+00
 -2.8964E+00   -9.2993E-03    6.3235E+00
 -2.6896E+00   -9.4675E-03    5.9635E+00
 -2.4834E+00   -9.5887E-03    5.6041E+00
 -2.2785E+00   -9.7118E-03    5.2455E+00
 -2.0760E+00   -9.8093E-03    4.8882E+00
 -1.6846E+00   -1.0635E-02    4.1832E+00
 -1.3191E+00   -1.0964E-02    3.4960E+00
 -9.8735E-01   -1.0976E-02    2.8340E+00
 -6.9688E-01   -1.0858E-02    2.2064E+00
 -4.5368E-01   -1.0582E-02    1.6241E+00
 -2.6260E-01   -9.6373E-03    1.1007E+00
 -1.2667E-01   -6.5380E-03    6.5383E-01
 -4.4201E-02    2.0759E-03    3.0342E-01
 -2.4136E-02    1.7382E-03    1.7117E-01
 -1.1986E-02    1.5834E-03    7.5495E-02
 -4.7937E-03    2.0035E-03    1.8534E-02
  0.0000E+00    0.0000E+00    0.0000E+00
