# vtk DataFile Version 3.0 
vtk output 
ASCII 
DATASET UNSTRUCTURED_GRID 
POINTS            68 float
  0.0000E+00    0.0000E+00    0.0000E+00
  8.3333E-01    0.0000E+00    0.0000E+00
  1.6667E+00    0.0000E+00    0.0000E+00
  2.5000E+00    0.0000E+00    0.0000E+00
  3.3333E+00    0.0000E+00    0.0000E+00
  3.7500E+00    0.0000E+00    0.0000E+00
  4.1667E+00    0.0000E+00    0.0000E+00
  4.5833E+00    0.0000E+00    0.0000E+00
  5.0000E+00    0.0000E+00    0.0000E+00
  5.4167E+00    0.0000E+00    0.0000E+00
  5.8333E+00    0.0000E+00    0.0000E+00
  6.2500E+00    0.0000E+00    0.0000E+00
  6.6667E+00    0.0000E+00    0.0000E+00
  7.5000E+00    0.0000E+00    0.0000E+00
  8.3333E+00    0.0000E+00    0.0000E+00
  9.1667E+00    0.0000E+00    0.0000E+00
  1.0000E+01    0.0000E+00    0.0000E+00
  1.0000E+01    1.0000E+00    0.0000E+00
  9.5833E+00    1.0000E+00    0.0000E+00
  9.1667E+00    1.0000E+00    0.0000E+00
  8.7500E+00    1.0000E+00    0.0000E+00
  8.3333E+00    1.0000E+00    0.0000E+00
  7.5000E+00    1.0000E+00    0.0000E+00
  6.6667E+00    1.0000E+00    0.0000E+00
  5.8333E+00    1.0000E+00    0.0000E+00
  5.0000E+00    1.0000E+00    0.0000E+00
  4.1667E+00    1.0000E+00    0.0000E+00
  3.3333E+00    1.0000E+00    0.0000E+00
  2.5000E+00    1.0000E+00    0.0000E+00
  1.6667E+00    1.0000E+00    0.0000E+00
  1.2500E+00    1.0000E+00    0.0000E+00
  8.3333E-01    1.0000E+00    0.0000E+00
  4.1667E-01    1.0000E+00    0.0000E+00
  0.0000E+00    1.0000E+00    0.0000E+00
  0.0000E+00    0.0000E+00    1.0000E-01
  8.3333E-01    0.0000E+00    1.0000E-01
  1.6667E+00    0.0000E+00    1.0000E-01
  2.5000E+00    0.0000E+00    1.0000E-01
  3.3333E+00    0.0000E+00    1.0000E-01
  3.7500E+00    0.0000E+00    1.0000E-01
  4.1667E+00    0.0000E+00    1.0000E-01
  4.5833E+00    0.0000E+00    1.0000E-01
  5.0000E+00    0.0000E+00    1.0000E-01
  5.4167E+00    0.0000E+00    1.0000E-01
  5.8333E+00    0.0000E+00    1.0000E-01
  6.2500E+00    0.0000E+00    1.0000E-01
  6.6667E+00    0.0000E+00    1.0000E-01
  7.5000E+00    0.0000E+00    1.0000E-01
  8.3333E+00    0.0000E+00    1.0000E-01
  9.1667E+00    0.0000E+00    1.0000E-01
  1.0000E+01    0.0000E+00    1.0000E-01
  1.0000E+01    1.0000E+00    1.0000E-01
  9.5833E+00    1.0000E+00    1.0000E-01
  9.1667E+00    1.0000E+00    1.0000E-01
  8.7500E+00    1.0000E+00    1.0000E-01
  8.3333E+00    1.0000E+00    1.0000E-01
  7.5000E+00    1.0000E+00    1.0000E-01
  6.6667E+00    1.0000E+00    1.0000E-01
  5.8333E+00    1.0000E+00    1.0000E-01
  5.0000E+00    1.0000E+00    1.0000E-01
  4.1667E+00    1.0000E+00    1.0000E-01
  3.3333E+00    1.0000E+00    1.0000E-01
  2.5000E+00    1.0000E+00    1.0000E-01
  1.6667E+00    1.0000E+00    1.0000E-01
  1.2500E+00    1.0000E+00    1.0000E-01
  8.3333E-01    1.0000E+00    1.0000E-01
  4.1667E-01    1.0000E+00    1.0000E-01
  0.0000E+00    1.0000E+00    1.0000E-01
CELLS          16        144 
          8           0           1          32          33          34          35          66          67 
          8           1           2          31          32          35          36          65          66 
          8           2           3          30          31          36          37          64          65 
          8           3           4          29          30          37          38          63          64 
          8           4           5          28          29          38          39          62          63 
          8           5           6          27          28          39          40          61          62 
          8           6           7          26          27          40          41          60          61 
          8           7           8          25          26          41          42          59          60 
          8           8           9          24          25          42          43          58          59 
          8           9          10          23          24          43          44          57          58 
          8          10          11          22          23          44          45          56          57 
          8          11          12          21          22          45          46          55          56 
          8          12          13          20          21          46          47          54          55 
          8          13          14          19          20          47          48          53          54 
          8          14          15          18          19          48          49          52          53 
          8          15          16          17          18          49          50          51          52 
CELL_TYPES     16
 12 
 12 
 12 
 12 
 12 
 12 
 12 
 12 
 12 
 12 
 12 
 12 
 12 
 12 
 12 
 12 
POINT_DATA            68  
VECTORS deplacement   float64  
  0.0000E+00    0.0000E+00    0.0000E+00
  5.5590E-03    1.6767E-03    7.1681E-02
 -1.1664E-02    7.0049E-04    2.7900E-01
 -6.7968E-02   -2.1891E-03    6.0286E-01
 -1.7159E-01   -9.5264E-03    1.0222E+00
 -2.4032E-01   -9.1572E-03    1.2627E+00
 -3.2268E-01   -9.2864E-03    1.5175E+00
 -4.1711E-01   -9.4615E-03    1.7854E+00
 -5.2278E-01   -9.5766E-03    2.0656E+00
 -6.3921E-01   -9.6597E-03    2.3572E+00
 -7.6596E-01   -9.7430E-03    2.6590E+00
 -9.0263E-01   -9.8265E-03    2.9702E+00
 -1.0486E+00   -9.8690E-03    3.2894E+00
 -1.3634E+00   -9.2879E-03    3.9444E+00
 -1.7010E+00   -9.1281E-03    4.6161E+00
 -2.0541E+00   -9.0875E-03    5.2981E+00
 -2.4147E+00   -9.0324E-03    5.9848E+00
 -2.4142E+00   -9.0878E-03    5.9840E+00
 -2.2340E+00   -9.1896E-03    5.6409E+00
 -2.0545E+00   -9.3328E-03    5.2981E+00
 -1.8764E+00   -9.4607E-03    4.9562E+00
 -1.7006E+00   -9.5078E-03    4.6154E+00
 -1.3623E+00   -1.0217E-02    3.9428E+00
 -1.0484E+00   -1.0611E-02    3.2882E+00
 -7.6592E-01   -1.0798E-02    2.6591E+00
 -5.2155E-01   -1.0923E-02    2.0647E+00
 -3.2038E-01   -1.0957E-02    1.5155E+00
 -1.6647E-01   -1.0460E-02    1.0241E+00
 -6.2155E-02   -8.1082E-03    6.0658E-01
 -5.2203E-03   -7.9646E-04    2.8098E-01
  3.9743E-03   -1.2011E-03    1.5857E-01
  6.1247E-03   -1.4307E-03    6.9994E-02
  3.8330E-03   -1.8309E-03    1.7256E-02
  0.0000E+00    0.0000E+00    0.0000E+00
  0.0000E+00    0.0000E+00    0.0000E+00
 -1.1381E-02   -1.6887E-03    7.0174E-02
 -4.3790E-02   -1.6722E-03    2.7366E-01
 -1.1259E-01   -4.1791E-03    5.9233E-01
 -2.2644E-01   -1.1245E-02    1.0058E+00
 -2.9916E-01   -1.0863E-02    1.2436E+00
 -3.8500E-01   -1.0806E-02    1.4957E+00
 -4.8259E-01   -1.0788E-02    1.7610E+00
 -5.9113E-01   -1.0770E-02    2.0386E+00
 -7.1015E-01   -1.0738E-02    2.3276E+00
 -8.3924E-01   -1.0699E-02    2.6271E+00
 -9.7799E-01   -1.0679E-02    2.9359E+00
 -1.1258E+00   -1.0678E-02    3.2530E+00
 -1.4430E+00   -9.9899E-03    3.9049E+00
 -1.7823E+00   -9.6012E-03    4.5744E+00
 -2.1363E+00   -9.2786E-03    5.2551E+00
 -2.4972E+00   -8.9995E-03    5.9413E+00
 -2.4966E+00   -8.9569E-03    5.9407E+00
 -2.3163E+00   -9.0208E-03    5.5977E+00
 -2.1367E+00   -9.0400E-03    5.2552E+00
 -1.9583E+00   -9.0623E-03    4.9136E+00
 -1.7821E+00   -9.0630E-03    4.5734E+00
 -1.4419E+00   -9.6497E-03    3.9033E+00
 -1.1254E+00   -9.7898E-03    3.2520E+00
 -8.3930E-01   -9.6566E-03    2.6270E+00
 -5.9014E-01   -9.4281E-03    2.0375E+00
 -3.8283E-01   -9.0904E-03    1.4935E+00
 -2.2106E-01   -8.2095E-03    1.0078E+00
 -1.0674E-01   -5.5156E-03    5.9605E-01
 -3.7741E-02    1.8491E-03    2.7552E-01
 -2.0982E-02    1.5585E-03    1.5536E-01
 -1.0644E-02    1.4345E-03    6.8538E-02
 -4.3295E-03    1.8132E-03    1.6844E-02
  0.0000E+00    0.0000E+00    0.0000E+00
