# vtk DataFile Version 3.0 
vtk output 
ASCII 
DATASET UNSTRUCTURED_GRID 
POINTS            68 float
  0.0000E+00    0.0000E+00    0.0000E+00
  8.3333E-01    0.0000E+00    0.0000E+00
  1.6667E+00    0.0000E+00    0.0000E+00
  2.5000E+00    0.0000E+00    0.0000E+00
  3.3333E+00    0.0000E+00    0.0000E+00
  3.7500E+00    0.0000E+00    0.0000E+00
  4.1667E+00    0.0000E+00    0.0000E+00
  4.5833E+00    0.0000E+00    0.0000E+00
  5.0000E+00    0.0000E+00    0.0000E+00
  5.4167E+00    0.0000E+00    0.0000E+00
  5.8333E+00    0.0000E+00    0.0000E+00
  6.2500E+00    0.0000E+00    0.0000E+00
  6.6667E+00    0.0000E+00    0.0000E+00
  7.5000E+00    0.0000E+00    0.0000E+00
  8.3333E+00    0.0000E+00    0.0000E+00
  9.1667E+00    0.0000E+00    0.0000E+00
  1.0000E+01    0.0000E+00    0.0000E+00
  1.0000E+01    1.0000E+00    0.0000E+00
  9.5833E+00    1.0000E+00    0.0000E+00
  9.1667E+00    1.0000E+00    0.0000E+00
  8.7500E+00    1.0000E+00    0.0000E+00
  8.3333E+00    1.0000E+00    0.0000E+00
  7.5000E+00    1.0000E+00    0.0000E+00
  6.6667E+00    1.0000E+00    0.0000E+00
  5.8333E+00    1.0000E+00    0.0000E+00
  5.0000E+00    1.0000E+00    0.0000E+00
  4.1667E+00    1.0000E+00    0.0000E+00
  3.3333E+00    1.0000E+00    0.0000E+00
  2.5000E+00    1.0000E+00    0.0000E+00
  1.6667E+00    1.0000E+00    0.0000E+00
  1.2500E+00    1.0000E+00    0.0000E+00
  8.3333E-01    1.0000E+00    0.0000E+00
  4.1667E-01    1.0000E+00    0.0000E+00
  0.0000E+00    1.0000E+00    0.0000E+00
  0.0000E+00    0.0000E+00    1.0000E-01
  8.3333E-01    0.0000E+00    1.0000E-01
  1.6667E+00    0.0000E+00    1.0000E-01
  2.5000E+00    0.0000E+00    1.0000E-01
  3.3333E+00    0.0000E+00    1.0000E-01
  3.7500E+00    0.0000E+00    1.0000E-01
  4.1667E+00    0.0000E+00    1.0000E-01
  4.5833E+00    0.0000E+00    1.0000E-01
  5.0000E+00    0.0000E+00    1.0000E-01
  5.4167E+00    0.0000E+00    1.0000E-01
  5.8333E+00    0.0000E+00    1.0000E-01
  6.2500E+00    0.0000E+00    1.0000E-01
  6.6667E+00    0.0000E+00    1.0000E-01
  7.5000E+00    0.0000E+00    1.0000E-01
  8.3333E+00    0.0000E+00    1.0000E-01
  9.1667E+00    0.0000E+00    1.0000E-01
  1.0000E+01    0.0000E+00    1.0000E-01
  1.0000E+01    1.0000E+00    1.0000E-01
  9.5833E+00    1.0000E+00    1.0000E-01
  9.1667E+00    1.0000E+00    1.0000E-01
  8.7500E+00    1.0000E+00    1.0000E-01
  8.3333E+00    1.0000E+00    1.0000E-01
  7.5000E+00    1.0000E+00    1.0000E-01
  6.6667E+00    1.0000E+00    1.0000E-01
  5.8333E+00    1.0000E+00    1.0000E-01
  5.0000E+00    1.0000E+00    1.0000E-01
  4.1667E+00    1.0000E+00    1.0000E-01
  3.3333E+00    1.0000E+00    1.0000E-01
  2.5000E+00    1.0000E+00    1.0000E-01
  1.6667E+00    1.0000E+00    1.0000E-01
  1.2500E+00    1.0000E+00    1.0000E-01
  8.3333E-01    1.0000E+00    1.0000E-01
  4.1667E-01    1.0000E+00    1.0000E-01
  0.0000E+00    1.0000E+00    1.0000E-01
CELLS          16        144 
          8           0           1          32          33          34          35          66          67 
          8           1           2          31          32          35          36          65          66 
          8           2           3          30          31          36          37          64          65 
          8           3           4          29          30          37          38          63          64 
          8           4           5          28          29          38          39          62          63 
          8           5           6          27          28          39          40          61          62 
          8           6           7          26          27          40          41          60          61 
          8           7           8          25          26          41          42          59          60 
          8           8           9          24          25          42          43          58          59 
          8           9          10          23          24          43          44          57          58 
          8          10          11          22          23          44          45          56          57 
          8          11          12          21          22          45          46          55          56 
          8          12          13          20          21          46          47          54          55 
          8          13          14          19          20          47          48          53          54 
          8          14          15          18          19          48          49          52          53 
          8          15          16          17          18          49          50          51          52 
CELL_TYPES     16
 12 
 12 
 12 
 12 
 12 
 12 
 12 
 12 
 12 
 12 
 12 
 12 
 12 
 12 
 12 
 12 
POINT_DATA            68  
VECTORS deplacement   float64  
  0.0000E+00    0.0000E+00    0.0000E+00
  4.7248E-03    1.2666E-03    5.3573E-02
 -3.4899E-03    6.2192E-04    2.0977E-01
 -3.4461E-02   -1.1540E-03    4.5687E-01
 -9.3736E-02   -5.6648E-03    7.8151E-01
 -1.3369E-01   -5.4879E-03    9.6944E-01
 -1.8229E-01   -5.6172E-03    1.1704E+00
 -2.3870E-01   -5.7876E-03    1.3835E+00
 -3.0245E-01   -5.9320E-03    1.6079E+00
 -3.7328E-01   -6.0664E-03    1.8430E+00
 -4.5097E-01   -6.2119E-03    2.0879E+00
 -5.3531E-01   -6.3654E-03    2.3418E+00
 -6.2601E-01   -6.4943E-03    2.6036E+00
 -8.2326E-01   -6.3007E-03    3.1447E+00
 -1.0366E+00   -6.4258E-03    3.7034E+00
 -1.2609E+00   -6.6486E-03    4.2732E+00
 -1.4907E+00   -6.8618E-03    4.8482E+00
 -1.4906E+00   -6.9070E-03    4.8481E+00
 -1.3757E+00   -6.8637E-03    4.5608E+00
 -1.2614E+00   -6.8555E-03    4.2739E+00
 -1.1481E+00   -6.8351E-03    3.9879E+00
 -1.0366E+00   -6.7554E-03    3.7034E+00
 -8.2282E-01   -7.0381E-03    3.1440E+00
 -6.2616E-01   -7.1203E-03    2.6034E+00
 -4.5119E-01   -7.0832E-03    2.0886E+00
 -3.0192E-01   -7.0302E-03    1.6078E+00
 -1.8112E-01   -6.9552E-03    1.1693E+00
 -9.0587E-02   -6.5896E-03    7.8261E-01
 -3.0824E-02   -5.1220E-03    4.5916E-01
  4.0643E-04   -6.8486E-04    2.1089E-01
  4.6664E-03   -9.3249E-04    1.1891E-01
  5.0309E-03   -1.0705E-03    5.2516E-02
  2.9351E-03   -1.3652E-03    1.2966E-02
  0.0000E+00    0.0000E+00    0.0000E+00
  0.0000E+00    0.0000E+00    0.0000E+00
 -7.9929E-03   -1.2760E-03    5.2726E-02
 -2.7893E-02   -1.2320E-03    2.0672E-01
 -6.8835E-02   -2.7530E-03    4.5077E-01
 -1.3663E-01   -7.0963E-03    7.7183E-01
 -1.8004E-01   -6.8979E-03    9.5804E-01
 -2.3175E-01   -6.9042E-03    1.1573E+00
 -2.9103E-01   -6.9424E-03    1.3687E+00
 -3.5743E-01   -6.9875E-03    1.5915E+00
 -4.3071E-01   -7.0312E-03    1.8249E+00
 -5.1064E-01   -7.0767E-03    2.0681E+00
 -5.9703E-01   -7.1438E-03    2.3204E+00
 -6.8953E-01   -7.2352E-03    2.5809E+00
 -8.8930E-01   -6.9501E-03    3.1198E+00
 -1.1044E+00   -6.8825E-03    3.6769E+00
 -1.3297E+00   -6.8666E-03    4.2458E+00
 -1.5598E+00   -6.8892E-03    4.8204E+00
 -1.5595E+00   -6.8509E-03    4.8205E+00
 -1.4446E+00   -6.7755E-03    4.5332E+00
 -1.3302E+00   -6.6634E-03    4.2465E+00
 -1.2166E+00   -6.5563E-03    3.9608E+00
 -1.1045E+00   -6.4389E-03    3.6767E+00
 -8.8886E-01   -6.6234E-03    3.1190E+00
 -6.8953E-01   -6.5031E-03    2.5807E+00
 -5.1096E-01   -6.2131E-03    2.0688E+00
 -3.5711E-01   -5.8895E-03    1.5912E+00
 -2.3068E-01   -5.5360E-03    1.1561E+00
 -1.3328E-01   -4.8914E-03    7.7302E-01
 -6.5178E-02   -3.1835E-03    4.5305E-01
 -2.4261E-02    1.3163E-03    2.0779E-01
 -1.4174E-02    1.1369E-03    1.1709E-01
 -7.5950E-03    1.0746E-03    5.1693E-02
 -3.2213E-03    1.3574E-03    1.2732E-02
  0.0000E+00    0.0000E+00    0.0000E+00
