# vtk DataFile Version 3.0 
vtk output 
ASCII 
DATASET UNSTRUCTURED_GRID 
POINTS           578 float
  1.0020E+01    0.0000E+00   -0.0000E+00
  9.9800E+00    0.0000E+00   -0.0000E+00
  3.0840E+00    0.0000E+00    9.4915E+00
  3.0964E+00    0.0000E+00    9.5296E+00
  9.9492E+00    0.0000E+00    7.8300E-01
  9.8571E+00    0.0000E+00    1.5612E+00
  9.7043E+00    0.0000E+00    2.3298E+00
  9.4915E+00    0.0000E+00    3.0840E+00
  9.2203E+00    0.0000E+00    3.8192E+00
  8.8922E+00    0.0000E+00    4.5308E+00
  8.5093E+00    0.0000E+00    5.2145E+00
  8.0740E+00    0.0000E+00    5.8661E+00
  7.5889E+00    0.0000E+00    6.4815E+00
  7.0569E+00    0.0000E+00    7.0569E+00
  6.4815E+00    0.0000E+00    7.5889E+00
  5.8661E+00    0.0000E+00    8.0740E+00
  5.2145E+00    0.0000E+00    8.5093E+00
  4.5308E+00    0.0000E+00    8.8922E+00
  3.8192E+00    0.0000E+00    9.2203E+00
  9.9891E+00    0.0000E+00    7.8620E-01
  9.8966E+00    0.0000E+00    1.5675E+00
  9.7431E+00    0.0000E+00    2.3391E+00
  9.5296E+00    0.0000E+00    3.0964E+00
  9.2573E+00    0.0000E+00    3.8345E+00
  8.9279E+00    0.0000E+00    4.5490E+00
  8.5435E+00    0.0000E+00    5.2354E+00
  8.1064E+00    0.0000E+00    5.8896E+00
  7.6193E+00    0.0000E+00    6.5075E+00
  7.0852E+00    0.0000E+00    7.0852E+00
  6.5075E+00    0.0000E+00    7.6193E+00
  5.8896E+00    0.0000E+00    8.1064E+00
  5.2354E+00    0.0000E+00    8.5435E+00
  4.5490E+00    0.0000E+00    8.9279E+00
  3.8345E+00    0.0000E+00    9.2573E+00
  9.9718E+00    9.8210E-01   -0.0000E+00
  9.8275E+00    1.9548E+00   -0.0000E+00
  9.5885E+00    2.9087E+00   -0.0000E+00
  9.2573E+00    3.8345E+00   -0.0000E+00
  8.8369E+00    4.7234E+00   -0.0000E+00
  8.3313E+00    5.5668E+00   -0.0000E+00
  7.7456E+00    6.3566E+00   -0.0000E+00
  7.0852E+00    7.0852E+00   -0.0000E+00
  6.3566E+00    7.7456E+00   -0.0000E+00
  5.5668E+00    8.3313E+00   -0.0000E+00
  4.7234E+00    8.8369E+00   -0.0000E+00
  3.8345E+00    9.2573E+00   -0.0000E+00
  2.9087E+00    9.5885E+00   -0.0000E+00
  1.9548E+00    9.8275E+00   -0.0000E+00
  9.8210E-01    9.9718E+00   -0.0000E+00
  0.0000E+00    1.0020E+01   -0.0000E+00
  9.9319E+00    9.7820E-01   -0.0000E+00
  9.7882E+00    1.9470E+00   -0.0000E+00
  9.5503E+00    2.8970E+00   -0.0000E+00
  9.2203E+00    3.8192E+00   -0.0000E+00
  8.8016E+00    4.7045E+00   -0.0000E+00
  8.2981E+00    5.5446E+00   -0.0000E+00
  7.7146E+00    6.3312E+00   -0.0000E+00
  7.0569E+00    7.0569E+00   -0.0000E+00
  6.3312E+00    7.7146E+00   -0.0000E+00
  5.5446E+00    8.2981E+00   -0.0000E+00
  4.7045E+00    8.8016E+00   -0.0000E+00
  3.8192E+00    9.2203E+00   -0.0000E+00
  2.8970E+00    9.5503E+00   -0.0000E+00
  1.9470E+00    9.7882E+00   -0.0000E+00
  9.7820E-01    9.9319E+00   -0.0000E+00
 -0.0000E+00    9.9800E+00   -0.0000E+00
  9.9013E+00    9.7520E-01    7.8300E-01
  9.7581E+00    1.9410E+00    7.8300E-01
  9.5208E+00    2.8881E+00    7.8300E-01
  9.1919E+00    3.8074E+00    7.8300E-01
  8.7744E+00    4.6900E+00    7.8300E-01
  8.2725E+00    5.5275E+00    7.8300E-01
  7.6909E+00    6.3117E+00    7.8300E-01
  7.0352E+00    7.0352E+00    7.8300E-01
  6.3117E+00    7.6909E+00    7.8300E-01
  5.5275E+00    8.2725E+00    7.8300E-01
  4.6900E+00    8.7744E+00    7.8300E-01
  3.8074E+00    9.1919E+00    7.8300E-01
  2.8881E+00    9.5208E+00    7.8300E-01
  1.9410E+00    9.7581E+00    7.8300E-01
  9.7520E-01    9.9013E+00    7.8300E-01
  0.0000E+00    9.9492E+00    7.8300E-01
  9.8097E+00    9.6620E-01    1.5612E+00
  9.6677E+00    1.9230E+00    1.5612E+00
  9.4327E+00    2.8614E+00    1.5612E+00
  9.1068E+00    3.7722E+00    1.5612E+00
  8.6932E+00    4.6466E+00    1.5612E+00
  8.1959E+00    5.4763E+00    1.5612E+00
  7.6197E+00    6.2533E+00    1.5612E+00
  6.9700E+00    6.9700E+00    1.5612E+00
  6.2533E+00    7.6197E+00    1.5612E+00
  5.4763E+00    8.1959E+00    1.5612E+00
  4.6466E+00    8.6932E+00    1.5612E+00
  3.7722E+00    9.1068E+00    1.5612E+00
  2.8614E+00    9.4327E+00    1.5612E+00
  1.9230E+00    9.6677E+00    1.5612E+00
  9.6620E-01    9.8097E+00    1.5612E+00
 -0.0000E+00    9.8571E+00    1.5612E+00
  9.6575E+00    9.5120E-01    2.3298E+00
  9.5178E+00    1.8932E+00    2.3298E+00
  9.2864E+00    2.8170E+00    2.3298E+00
  8.9656E+00    3.7137E+00    2.3298E+00
  8.5584E+00    4.5746E+00    2.3298E+00
  8.0688E+00    5.3914E+00    2.3298E+00
  7.5015E+00    6.1563E+00    2.3298E+00
  6.8619E+00    6.8619E+00    2.3298E+00
  6.1563E+00    7.5015E+00    2.3298E+00
  5.3914E+00    8.0688E+00    2.3298E+00
  4.5746E+00    8.5584E+00    2.3298E+00
  3.7137E+00    8.9656E+00    2.3298E+00
  2.8170E+00    9.2864E+00    2.3298E+00
  1.8932E+00    9.5178E+00    2.3298E+00
  9.5120E-01    9.6575E+00    2.3298E+00
  0.0000E+00    9.7043E+00    2.3298E+00
  9.4458E+00    9.3030E-01    3.0840E+00
  9.3092E+00    1.8517E+00    3.0840E+00
  9.0828E+00    2.7552E+00    3.0840E+00
  8.7690E+00    3.6323E+00    3.0840E+00
  8.3708E+00    4.4743E+00    3.0840E+00
  7.8919E+00    5.2732E+00    3.0840E+00
  7.3371E+00    6.0214E+00    3.0840E+00
  6.7115E+00    6.7115E+00    3.0840E+00
  6.0214E+00    7.3371E+00    3.0840E+00
  5.2732E+00    7.8919E+00    3.0840E+00
  4.4743E+00    8.3708E+00    3.0840E+00
  3.6323E+00    8.7690E+00    3.0840E+00
  2.7552E+00    9.0828E+00    3.0840E+00
  1.8517E+00    9.3092E+00    3.0840E+00
  9.3030E-01    9.4458E+00    3.0840E+00
  0.0000E+00    9.4915E+00    3.0840E+00
  9.1759E+00    9.0370E-01    3.8192E+00
  9.0432E+00    1.7988E+00    3.8192E+00
  8.8233E+00    2.6765E+00    3.8192E+00
  8.5185E+00    3.5285E+00    3.8192E+00
  8.1316E+00    4.3464E+00    3.8192E+00
  7.6664E+00    5.1225E+00    3.8192E+00
  7.1274E+00    5.8493E+00    3.8192E+00
  6.5197E+00    6.5197E+00    3.8192E+00
  5.8493E+00    7.1274E+00    3.8192E+00
  5.1225E+00    7.6664E+00    3.8192E+00
  4.3464E+00    8.1316E+00    3.8192E+00
  3.5285E+00    8.5185E+00    3.8192E+00
  2.6765E+00    8.8233E+00    3.8192E+00
  1.7988E+00    9.0432E+00    3.8192E+00
  9.0370E-01    9.1759E+00    3.8192E+00
 -0.0000E+00    9.2203E+00    3.8192E+00
  8.8494E+00    8.7160E-01    4.5308E+00
  8.7214E+00    1.7348E+00    4.5308E+00
  8.5093E+00    2.5813E+00    4.5308E+00
  8.2154E+00    3.4029E+00    4.5308E+00
  7.8423E+00    4.1918E+00    4.5308E+00
  7.3936E+00    4.9403E+00    4.5308E+00
  6.8738E+00    5.6412E+00    4.5308E+00
  6.2878E+00    6.2878E+00    4.5308E+00
  5.6412E+00    6.8738E+00    4.5308E+00
  4.9403E+00    7.3936E+00    4.5308E+00
  4.1918E+00    7.8423E+00    4.5308E+00
  3.4029E+00    8.2154E+00    4.5308E+00
  2.5813E+00    8.5093E+00    4.5308E+00
  1.7348E+00    8.7214E+00    4.5308E+00
  8.7160E-01    8.8494E+00    4.5308E+00
  0.0000E+00    8.8922E+00    4.5308E+00
  8.4684E+00    8.3410E-01    5.2145E+00
  8.3458E+00    1.6601E+00    5.2145E+00
  8.1429E+00    2.4701E+00    5.2145E+00
  7.8616E+00    3.2564E+00    5.2145E+00
  7.5046E+00    4.0113E+00    5.2145E+00
  7.0753E+00    4.7275E+00    5.2145E+00
  6.5778E+00    5.3983E+00    5.2145E+00
  6.0170E+00    6.0170E+00    5.2145E+00
  5.3983E+00    6.5778E+00    5.2145E+00
  4.7275E+00    7.0753E+00    5.2145E+00
  4.0113E+00    7.5046E+00    5.2145E+00
  3.2564E+00    7.8616E+00    5.2145E+00
  2.4701E+00    8.1429E+00    5.2145E+00
  1.6601E+00    8.3458E+00    5.2145E+00
  8.3410E-01    8.4684E+00    5.2145E+00
  0.0000E+00    8.5093E+00    5.2145E+00
  8.0351E+00    7.9140E-01    5.8661E+00
  7.9189E+00    1.5752E+00    5.8661E+00
  7.7263E+00    2.3438E+00    5.8661E+00
  7.4594E+00    3.0898E+00    5.8661E+00
  7.1206E+00    3.8061E+00    5.8661E+00
  6.7133E+00    4.4857E+00    5.8661E+00
  6.2413E+00    5.1221E+00    5.8661E+00
  5.7092E+00    5.7092E+00    5.8661E+00
  5.1221E+00    6.2413E+00    5.8661E+00
  4.4857E+00    6.7133E+00    5.8661E+00
  3.8061E+00    7.1206E+00    5.8661E+00
  3.0898E+00    7.4594E+00    5.8661E+00
  2.3438E+00    7.7263E+00    5.8661E+00
  1.5752E+00    7.9189E+00    5.8661E+00
  7.9140E-01    8.0351E+00    5.8661E+00
 -0.0000E+00    8.0740E+00    5.8661E+00
  7.5523E+00    7.4380E-01    6.4815E+00
  7.4430E+00    1.4805E+00    6.4815E+00
  7.2621E+00    2.2029E+00    6.4815E+00
  7.0112E+00    2.9041E+00    6.4815E+00
  6.6928E+00    3.5774E+00    6.4815E+00
  6.3099E+00    4.2161E+00    6.4815E+00
  5.8663E+00    4.8143E+00    6.4815E+00
  5.3661E+00    5.3661E+00    6.4815E+00
  4.8143E+00    5.8663E+00    6.4815E+00
  4.2161E+00    6.3099E+00    6.4815E+00
  3.5774E+00    6.6928E+00    6.4815E+00
  2.9041E+00    7.0112E+00    6.4815E+00
  2.2029E+00    7.2621E+00    6.4815E+00
  1.4805E+00    7.4430E+00    6.4815E+00
  7.4380E-01    7.5523E+00    6.4815E+00
  0.0000E+00    7.5889E+00    6.4815E+00
  7.0229E+00    6.9170E-01    7.0569E+00
  6.9213E+00    1.3767E+00    7.0569E+00
  6.7531E+00    2.0485E+00    7.0569E+00
  6.5197E+00    2.7006E+00    7.0569E+00
  6.2237E+00    3.3266E+00    7.0569E+00
  5.8676E+00    3.9206E+00    7.0569E+00
  5.4551E+00    4.4769E+00    7.0569E+00
  4.9900E+00    4.9900E+00    7.0569E+00
  4.4769E+00    5.4551E+00    7.0569E+00
  3.9206E+00    5.8676E+00    7.0569E+00
  3.3266E+00    6.2237E+00    7.0569E+00
  2.7006E+00    6.5197E+00    7.0569E+00
  2.0485E+00    6.7531E+00    7.0569E+00
  1.3767E+00    6.9213E+00    7.0569E+00
  6.9170E-01    7.0229E+00    7.0569E+00
  0.0000E+00    7.0569E+00    7.0569E+00
  6.4503E+00    6.3530E-01    7.5889E+00
  6.3570E+00    1.2645E+00    7.5889E+00
  6.2024E+00    1.8815E+00    7.5889E+00
  5.9881E+00    2.4804E+00    7.5889E+00
  5.7162E+00    3.0554E+00    7.5889E+00
  5.3892E+00    3.6009E+00    7.5889E+00
  5.0103E+00    4.1118E+00    7.5889E+00
  4.5831E+00    4.5831E+00    7.5889E+00
  4.1118E+00    5.0103E+00    7.5889E+00
[...]
POINT_DATA           578  
VECTORS deplacement   float64  
  2.8010E+00    0.0000E+00    0.0000E+00
  2.8080E+00    0.0000E+00   -2.2260E-02
  3.2190E-02    0.0000E+00   -2.0020E+00
  2.9420E-02    0.0000E+00   -2.0010E+00
  2.3950E+00    0.0000E+00   -1.5750E-01
  2.0280E+00    0.0000E+00   -2.9950E-01
  1.7030E+00    0.0000E+00   -4.4650E-01
  1.4160E+00    0.0000E+00   -5.9600E-01
  1.1640E+00    0.0000E+00   -7.4640E-01
  9.4540E-01    0.0000E+00   -8.9580E-01
  7.5670E-01    0.0000E+00   -1.0430E+00
  5.9560E-01    0.0000E+00   -1.1850E+00
  4.5980E-01    0.0000E+00   -1.3210E+00
  3.4690E-01    0.0000E+00   -1.4510E+00
  2.5480E-01    0.0000E+00   -1.5710E+00
  1.8130E-01    0.0000E+00   -1.6820E+00
  1.2440E-01    0.0000E+00   -1.7810E+00
  8.1850E-02    0.0000E+00   -1.8690E+00
  5.1990E-02    0.0000E+00   -1.9420E+00
  2.3880E+00    0.0000E+00   -1.3780E-01
  2.0210E+00    0.0000E+00   -2.8190E-01
  1.6950E+00    0.0000E+00   -4.3090E-01
  1.4080E+00    0.0000E+00   -5.8230E-01
  1.1560E+00    0.0000E+00   -7.3440E-01
  9.3780E-01    0.0000E+00   -8.8550E-01
  7.4930E-01    0.0000E+00   -1.0340E+00
  5.8850E-01    0.0000E+00   -1.1770E+00
  4.5300E-01    0.0000E+00   -1.3150E+00
  3.4050E-01    0.0000E+00   -1.4450E+00
  2.4890E-01    0.0000E+00   -1.5670E+00
  1.7590E-01    0.0000E+00   -1.6780E+00
  1.1950E-01    0.0000E+00   -1.7790E+00
  7.7720E-02    0.0000E+00   -1.8670E+00
  4.8630E-02    0.0000E+00   -1.9410E+00
  2.6980E+00   -1.0250E-02   -1.0240E-01
  2.4460E+00   -1.1280E-01   -3.4860E-01
  2.1280E+00   -3.1540E-01   -6.6060E-01
  1.7870E+00   -6.0330E-01   -9.9630E-01
  1.4530E+00   -9.5400E-01   -1.3310E+00
  1.1430E+00   -1.3470E+00   -1.6490E+00
  8.6760E-01   -1.7630E+00   -1.9430E+00
  6.3130E-01   -2.1840E+00   -2.2070E+00
  4.3660E-01   -2.5960E+00   -2.4390E+00
  2.8310E-01   -2.9860E+00   -2.6370E+00
  1.6830E-01   -3.3400E+00   -2.8000E+00
  8.8420E-02   -3.6500E+00   -2.9270E+00
  3.8060E-02   -3.9070E+00   -3.0210E+00
  1.1350E-02   -4.1030E+00   -3.0810E+00
  6.5710E-04   -4.2350E+00   -3.1060E+00
  0.0000E+00   -4.2860E+00   -3.1090E+00
  2.7050E+00   -2.0860E-02   -1.2130E-01
  2.4550E+00   -1.2780E-01   -3.6120E-01
  2.1380E+00   -3.3190E-01   -6.6690E-01
  1.7990E+00   -6.1910E-01   -9.9670E-01
  1.4660E+00   -9.6800E-01   -1.3260E+00
  1.1570E+00   -1.3580E+00   -1.6400E+00
  8.8140E-01   -1.7710E+00   -1.9300E+00
  6.4500E-01   -2.1900E+00   -2.1910E+00
  4.4980E-01   -2.5980E+00   -2.4200E+00
  2.9540E-01   -2.9840E+00   -2.6150E+00
  1.7940E-01   -3.3360E+00   -2.7760E+00
  9.7980E-02   -3.6440E+00   -2.9020E+00
  4.5870E-02   -3.8980E+00   -2.9940E+00
  1.7030E-02   -4.0920E+00   -3.0530E+00
  4.5630E-03   -4.2230E+00   -3.0770E+00
  0.0000E+00   -4.2730E+00   -3.0790E+00
  2.3230E+00   -1.3420E-02   -2.3640E-01
  2.1330E+00   -8.7500E-02   -4.4340E-01
  1.8770E+00   -2.4220E-01   -7.2550E-01
  1.5930E+00   -4.7220E-01   -1.0430E+00
  1.3070E+00   -7.6340E-01   -1.3710E+00
  1.0350E+00   -1.0980E+00   -1.6920E+00
  7.9050E-01   -1.4590E+00   -1.9950E+00
  5.7840E-01   -1.8310E+00   -2.2720E+00
  4.0210E-01   -2.1970E+00   -2.5200E+00
  2.6210E-01   -2.5470E+00   -2.7340E+00
  1.5690E-01   -2.8660E+00   -2.9140E+00
  8.3250E-02   -3.1460E+00   -3.0590E+00
  3.6660E-02   -3.3760E+00   -3.1680E+00
  1.1660E-02   -3.5510E+00   -3.2430E+00
  1.8200E-03   -3.6620E+00   -3.2850E+00
  0.0000E+00   -3.7010E+00   -3.2980E+00
  1.9760E+00   -9.1540E-03   -3.6440E-01
  1.8320E+00   -6.1330E-02   -5.4210E-01
  1.6280E+00   -1.7730E-01   -7.9680E-01
  1.3940E+00   -3.5850E-01   -1.0950E+00
  1.1520E+00   -5.9630E-01   -1.4130E+00
  9.1880E-01   -8.7730E-01   -1.7300E+00
  7.0490E-01   -1.1870E+00   -2.0360E+00
  5.1770E-01   -1.5100E+00   -2.3210E+00
  3.6080E-01   -1.8320E+00   -2.5790E+00
  2.3550E-01   -2.1410E+00   -2.8060E+00
  1.4100E-01   -2.4260E+00   -2.9990E+00
  7.4670E-02   -2.6750E+00   -3.1580E+00
  3.2790E-02   -2.8800E+00   -3.2800E+00
  1.0430E-02   -3.0340E+00   -3.3660E+00
  1.6830E-03   -3.1290E+00   -3.4170E+00
  0.0000E+00   -3.1610E+00   -3.4340E+00
  1.6630E+00   -6.7180E-03   -5.0100E-01
  1.5530E+00   -4.4660E-02   -6.5410E-01
  1.3910E+00   -1.3250E-01   -8.8110E-01
  1.2010E+00   -2.7470E-01   -1.1550E+00
  9.9950E-01   -4.6690E-01   -1.4540E+00
  8.0200E-01   -6.9950E-01   -1.7600E+00
  6.1870E-01   -9.6020E-01   -2.0600E+00
  4.5640E-01   -1.2360E+00   -2.3430E+00
  3.1930E-01   -1.5150E+00   -2.6040E+00
  2.0910E-01   -1.7840E+00   -2.8350E+00
  1.2560E-01   -2.0330E+00   -3.0340E+00
  6.6820E-02   -2.2520E+00   -3.1990E+00
  2.9650E-02   -2.4320E+00   -3.3280E+00
  9.6930E-03   -2.5660E+00   -3.4210E+00
  1.7560E-03   -2.6490E+00   -3.4760E+00
  0.0000E+00   -2.6770E+00   -3.4950E+00
  1.3860E+00   -5.0330E-03   -6.4230E-01
  1.3000E+00   -3.3120E-02   -7.7430E-01
  1.1730E+00   -9.9950E-02   -9.7490E-01
  1.0190E+00   -2.1130E-01   -1.2230E+00
  8.5370E-01   -3.6560E-01   -1.4990E+00
  6.8880E-01   -5.5600E-01   -1.7870E+00
  5.3390E-01   -7.7310E-01   -2.0730E+00
  3.9540E-01   -1.0060E+00   -2.3480E+00
  2.7740E-01   -1.2430E+00   -2.6030E+00
  1.8210E-01   -1.4750E+00   -2.8310E+00
  1.0960E-01   -1.6890E+00   -3.0310E+00
  5.8420E-02   -1.8790E+00   -3.1960E+00
  2.5960E-02   -2.0350E+00   -3.3270E+00
  8.5090E-03   -2.1520E+00   -3.4220E+00
  1.5570E-03   -2.2240E+00   -3.4780E+00
  0.0000E+00   -2.2480E+00   -3.4970E+00
  1.1410E+00   -3.8560E-03   -7.8590E-01
  1.0750E+00   -2.4880E-02   -8.9960E-01
  9.7520E-01   -7.5750E-02   -1.0750E+00
  8.5240E-01   -1.6240E-01   -1.2970E+00
  7.1820E-01   -2.8500E-01   -1.5480E+00
  5.8250E-01   -4.3910E-01   -1.8130E+00
  4.5360E-01   -6.1730E-01   -2.0810E+00
  3.3720E-01   -8.1090E-01   -2.3410E+00
  2.3740E-01   -1.0100E+00   -2.5840E+00
  1.5620E-01   -1.2060E+00   -2.8050E+00
  9.4120E-02   -1.3880E+00   -2.9990E+00
  5.0200E-02   -1.5500E+00   -3.1610E+00
  2.2300E-02   -1.6840E+00   -3.2900E+00
  7.2870E-03   -1.7840E+00   -3.3830E+00
  1.3220E-03   -1.8460E+00   -3.4390E+00
  0.0000E+00   -1.8670E+00   -3.4580E+00
  9.2770E-01   -2.9970E-03   -9.2950E-01
  8.7690E-01   -1.8850E-02   -1.0270E+00
  7.9890E-01   -5.7580E-02   -1.1800E+00
  7.0190E-01   -1.2460E-01   -1.3750E+00
  5.9450E-01   -2.2100E-01   -1.5990E+00
  4.8460E-01   -3.4390E-01   -1.8400E+00
  3.7900E-01   -4.8810E-01   -2.0860E+00
  2.8290E-01   -6.4630E-01   -2.3260E+00
  1.9980E-01   -8.1080E-01   -2.5540E+00
  1.3180E-01   -9.7340E-01   -2.7620E+00
  7.9630E-02   -1.1260E+00   -2.9460E+00
  4.2570E-02   -1.2620E+00   -3.1010E+00
  1.8960E-02   -1.3750E+00   -3.2250E+00
  6.2240E-03   -1.4600E+00   -3.3140E+00
  1.1420E-03   -1.5120E+00   -3.3680E+00
  0.0000E+00   -1.5300E+00   -3.3870E+00
  7.4320E-01   -2.3470E-03   -1.0710E+00
  7.0430E-01   -1.4330E-02   -1.1540E+00
  6.4410E-01   -4.3690E-02   -1.2860E+00
  5.6830E-01   -9.5130E-02   -1.4560E+00
  4.8350E-01   -1.7000E-01   -1.6530E+00
  3.9590E-01   -2.6670E-01   -1.8680E+00
  3.1090E-01   -3.8150E-01   -2.0890E+00
  2.3300E-01   -5.0870E-01   -2.3080E+00
  1.6510E-01   -6.4200E-01   -2.5170E+00
  1.0930E-01   -7.7480E-01   -2.7090E+00
  6.6230E-02   -9.0030E-01   -2.8800E+00
  3.5520E-02   -1.0120E+00   -3.0240E+00
  1.5890E-02   -1.1060E+00   -3.1400E+00
  5.2690E-03   -1.1760E+00   -3.2240E+00
  9.9430E-04   -1.2190E+00   -3.2750E+00
  0.0000E+00   -1.2340E+00   -3.2920E+00
  5.8540E-01   -1.8540E-03   -1.2090E+00
  5.5590E-01   -1.0860E-02   -1.2800E+00
  5.0990E-01   -3.2980E-02   -1.3910E+00
  4.5160E-01   -7.2010E-02   -1.5370E+00
  3.8570E-01   -1.2940E-01   -1.7090E+00
  3.1710E-01   -2.0430E-01   -1.8970E+00
  2.5000E-01   -2.9400E-01   -2.0920E+00
  1.8800E-01   -3.9440E-01   -2.2870E+00
  1.3370E-01   -5.0040E-01   -2.4750E+00
  8.8830E-02   -6.0660E-01   -2.6480E+00
  5.4000E-02   -7.0750E-01   -2.8030E+00
  2.9070E-02   -7.9810E-01   -2.9360E+00
  1.3080E-02   -8.7370E-01   -3.0420E+00
  4.3870E-03   -9.3060E-01   -3.1190E+00
  8.5870E-04   -9.6580E-01   -3.1660E+00
  0.0000E+00   -9.7780E-01   -3.1820E+00
  4.5220E-01   -1.4670E-03   -1.3420E+00
  4.3010E-01   -8.2050E-03   -1.4010E+00
  3.9550E-01   -2.4660E-02   -1.4950E+00
  3.5130E-01   -5.3880E-02   -1.6180E+00
  3.0110E-01   -9.7170E-02   -1.7650E+00
  2.4850E-01   -1.5410E-01   -1.9260E+00
  1.9660E-01   -2.2290E-01   -2.0960E+00
  1.4840E-01   -3.0040E-01   -2.2660E+00
  1.0590E-01   -3.8280E-01   -2.4310E+00
  7.0570E-02   -4.6590E-01   -2.5840E+00
  4.3050E-02   -5.4520E-01   -2.7220E+00
  2.3280E-02   -6.1670E-01   -2.8400E+00
  1.0540E-02   -6.7660E-01   -2.9350E+00
  3.5910E-03   -7.2170E-01   -3.0050E+00
  7.3350E-04   -7.4970E-01   -3.0470E+00
  0.0000E+00   -7.5920E-01   -3.0610E+00
  3.4130E-01   -1.1620E-03   -1.4670E+00
  3.2510E-01   -6.1470E-03   -1.5160E+00
  2.9950E-01   -1.8220E-02   -1.5940E+00
  2.6680E-01   -3.9720E-02   -1.6970E+00
  2.2940E-01   -7.1710E-02   -1.8190E+00
  1.8980E-01   -1.1410E-01   -1.9560E+00
  1.5070E-01   -1.6560E-01   -2.0990E+00
  1.1410E-01   -2.2400E-01   -2.2450E+00
  8.1720E-02   -2.8650E-01   -2.3870E+00
  5.4660E-02   -3.4980E-01   -2.5190E+00
  3.3480E-02   -4.1050E-01   -2.6390E+00
  1.8200E-02   -4.6540E-01   -2.7420E+00
  8.3160E-03   -5.1160E-01   -2.8250E+00
  2.8870E-03   -5.4640E-01   -2.8860E+00
  6.2080E-04   -5.6810E-01   -2.9230E+00
  0.0000E+00   -5.7540E-01   -2.9350E+00
  2.5080E-01   -9.1960E-04   -1.5850E+00
  2.3910E-01   -4.5500E-03   -1.6240E+00
  2.2070E-01   -1.3250E-02   -1.6870E+00
  1.9700E-01   -2.8720E-02   -1.7720E+00
  1.6970E-01   -5.1810E-02   -1.8720E+00
  1.4090E-01   -8.2540E-02   -1.9850E+00
  1.1220E-01   -1.2010E-01   -2.1040E+00
  8.5200E-02   -1.6280E-01   -2.2250E+00
  6.1220E-02   -2.0880E-01   -2.3440E+00
  4.1090E-02   -2.5560E-01   -2.4560E+00
  2.5290E-02   -3.0070E-01   -2.5570E+00
  1.3840E-02   -3.4160E-01   -2.6440E+00
  6.3950E-03   -3.7600E-01   -2.7150E+00
  2.2710E-03   -4.0210E-01   -2.7670E+00
  5.2020E-04   -4.1830E-01   -2.7980E+00
  0.0000E+00   -4.2380E-01   -2.8090E+00
  1.7850E-01   -7.2660E-04   -1.6920E+00
  1.7030E-01   -3.3280E-03   -1.7240E+00
  1.5740E-01   -9.4480E-03   -1.7740E+00
  1.4070E-01   -2.0280E-02   -1.8410E+00
  1.2150E-01   -3.6500E-02   -1.9220E+00
  1.0110E-01   -5.8110E-02   -2.0120E+00
  8.0710E-02   -8.4590E-02   -2.1080E+00
  6.1480E-02   -1.1490E-01   -2.2070E+00
  4.4320E-02   -1.4760E-01   -2.3040E+00
  2.9880E-02   -1.8100E-01   -2.3950E+00
  1.8490E-02   -2.1320E-01   -2.4780E+00
  1.0200E-02   -2.4250E-01   -2.5500E+00
  4.7900E-03   -2.6730E-01   -2.6080E+00
  1.7590E-03   -2.8600E-01   -2.6510E+00
  4.3570E-04   -2.9770E-01   -2.6770E+00
  0.0000E+00   -3.0170E-01   -2.6860E+00
  1.2250E-01   -5.7960E-04   -1.7900E+00
  1.1690E-01   -2.4140E-03   -1.8140E+00
  1.0810E-01   -6.6030E-03   -1.8530E+00
  9.6810E-02   -1.3970E-02   -1.9050E+00
  8.3740E-02   -2.4960E-02   -1.9670E+00
  6.9800E-02   -3.9630E-02   -2.0380E+00
  5.5840E-02   -5.7630E-02   -2.1130E+00
  4.2660E-02   -7.8270E-02   -2.1900E+00
  3.0860E-02   -1.0060E-01   -2.2670E+00
  2.0910E-02   -1.2340E-01   -2.3390E+00
  1.3030E-02   -1.4550E-01   -2.4050E+00
  7.2810E-03   -1.6560E-01   -2.4620E+00
  3.4940E-03   -1.8250E-01   -2.5080E+00
  1.3450E-03   -1.9540E-01   -2.5420E+00
  3.6690E-04   -2.0350E-01   -2.5630E+00
  0.0000E+00   -2.0620E-01   -2.5700E+00
  8.0610E-02   -4.6390E-04   -1.8750E+00
  7.7000E-02   -1.7320E-03   -1.8930E+00
  7.1280E-02   -4.5150E-03   -1.9220E+00
  6.3880E-02   -9.3420E-03   -1.9610E+00
  5.5330E-02   -1.6520E-02   -2.0080E+00
  4.6190E-02   -2.6080E-02   -2.0610E+00
  3.7040E-02   -3.7800E-02   -2.1180E+00
  2.8360E-02   -5.1260E-02   -2.1760E+00
  2.0580E-02   -6.5820E-02   -2.2340E+00
  1.4010E-02   -8.0730E-02   -2.2890E+00
  8.7960E-03   -9.5170E-02   -2.3390E+00
  4.9720E-03   -1.0830E-01   -2.3820E+00
  2.4370E-03   -1.1950E-01   -2.4180E+00
  9.7650E-04   -1.2790E-01   -2.4440E+00
  2.8760E-04   -1.3320E-01   -2.4600E+00
  0.0000E+00   -1.3500E-01   -2.4650E+00
  5.1210E-02   -3.4400E-04   -1.9460E+00
  4.8950E-02   -1.1820E-03   -1.9590E+00
  4.5360E-02   -2.9530E-03   -1.9800E+00
  4.0720E-02   -5.9870E-03   -2.0080E+00
  3.5330E-02   -1.0480E-02   -2.0420E+00
  2.9550E-02   -1.6460E-02   -2.0800E+00
  2.3750E-02   -2.3810E-02   -2.1210E+00
  1.8230E-02   -3.2250E-02   -2.1640E+00
  1.3280E-02   -4.1400E-02   -2.2050E+00
  9.0770E-03   -5.0790E-02   -2.2450E+00
  5.7310E-03   -5.9900E-02   -2.2820E+00
  3.2670E-03   -6.8220E-02   -2.3140E+00
  1.6260E-03   -7.5260E-02   -2.3400E+00
  6.6930E-04   -8.0610E-02   -2.3590E+00
  2.0620E-04   -8.3950E-02   -2.3710E+00
  0.0000E+00   -8.5090E-02   -2.3750E+00
  3.1740E-02   -3.3260E-04   -2.0050E+00
  3.0400E-02   -9.4610E-04   -2.0130E+00
  2.8290E-02   -2.0900E-03   -2.0270E+00
  2.5530E-02   -3.9580E-03   -2.0460E+00
  2.2320E-02   -6.6630E-03   -2.0690E+00
  1.8860E-02   -1.0230E-02   -2.0950E+00
  1.5360E-02   -1.4590E-02   -2.1230E+00
  1.2010E-02   -1.9590E-02   -2.1520E+00
  8.9590E-03   -2.5000E-02   -2.1800E+00
  6.3410E-03   -3.0560E-02   -2.2080E+00
  4.2160E-03   -3.5950E-02   -2.2330E+00
  2.6030E-03   -4.0880E-02   -2.2550E+00
  1.4680E-03   -4.5060E-02   -2.2720E+00
  7.3550E-04   -4.8230E-02   -2.2860E+00
  2.9210E-04   -5.0220E-02   -2.2940E+00
  0.0000E+00   -5.0890E-02   -2.2960E+00
  2.8970E-02    1.8220E-04   -2.0040E+00
  2.7640E-02    6.9720E-05   -2.0130E+00
  2.5540E-02   -6.0290E-04   -2.0270E+00
  2.2820E-02   -2.0360E-03   -2.0460E+00
  1.9660E-02   -4.3550E-03   -2.0690E+00
  1.6280E-02   -7.5860E-03   -2.0950E+00
  1.2880E-02   -1.1660E-02   -2.1230E+00
  9.6730E-03   -1.6430E-02   -2.1520E+00
  6.8100E-03   -2.1670E-02   -2.1810E+00
  4.4110E-03   -2.7090E-02   -2.2090E+00
  2.5430E-03   -3.2380E-02   -2.2340E+00
  1.2190E-03   -3.7230E-02   -2.2560E+00
  4.0420E-04   -4.1350E-02   -2.2740E+00
  1.2670E-05   -4.4490E-02   -2.2870E+00
 -7.2850E-05   -4.6460E-02   -2.2950E+00
  0.0000E+00   -4.7130E-02   -2.2980E+00
  2.3160E+00   -5.6350E-03   -2.1880E-01
  2.1250E+00   -7.5020E-02   -4.3070E-01
  1.8680E+00   -2.2780E-01   -7.1830E-01
  1.5820E+00   -4.5770E-01   -1.0420E+00
  1.2950E+00   -7.5000E-01   -1.3750E+00
  1.0230E+00   -1.0870E+00   -1.7000E+00
  7.7820E-01   -1.4500E+00   -2.0070E+00
  5.6620E-01   -1.8240E+00   -2.2880E+00
  3.9040E-01   -2.1940E+00   -2.5380E+00
  2.5120E-01   -2.5460E+00   -2.7550E+00
  1.4710E-01   -2.8680E+00   -2.9370E+00
  7.4830E-02   -3.1490E+00   -3.0840E+00
  2.9940E-02   -3.3820E+00   -3.1950E+00
  6.8030E-03   -3.5580E+00   -3.2710E+00
 -8.4930E-04   -3.6710E+00   -3.3130E+00
  0.0000E+00   -3.7100E+00   -3.3260E+00
  1.9680E+00   -3.2170E-03   -3.4810E-01
  1.8230E+00   -5.1120E-02   -5.2950E-01
  1.6190E+00   -1.6490E-01   -7.8870E-01
  1.3840E+00   -3.4530E-01   -1.0920E+00
  1.1420E+00   -5.8350E-01   -1.4140E+00
  9.0780E-01   -8.6580E-01   -1.7360E+00
  6.9390E-01   -1.1770E+00   -2.0460E+00
  5.0680E-01   -1.5020E+00   -2.3340E+00
  3.5040E-01   -1.8270E+00   -2.5950E+00
  2.2580E-01   -2.1380E+00   -2.8250E+00
  1.3230E-01   -2.4250E+00   -3.0200E+00
  6.7300E-02   -2.6760E+00   -3.1800E+00
  2.6970E-02   -2.8830E+00   -3.3040E+00
  6.3590E-03   -3.0370E+00   -3.3910E+00
 -4.1600E-04   -3.1340E+00   -3.4430E+00
  0.0000E+00   -3.1660E+00   -3.4600E+00
  1.6550E+00   -2.0300E-03   -4.8650E-01
  1.5440E+00   -3.6280E-02   -6.4220E-01
  1.3820E+00   -1.2180E-01   -8.7290E-01
  1.1910E+00   -2.6300E-01   -1.1510E+00
  9.8970E-01   -4.5510E-01   -1.4540E+00
  7.9200E-01   -6.8840E-01   -1.7640E+00
  6.0850E-01   -9.5030E-01   -2.0670E+00
  4.4640E-01   -1.2280E+00   -2.3540E+00
  3.0980E-01   -1.5080E+00   -2.6170E+00
  2.0030E-01   -1.7790E+00   -2.8510E+00
  1.1780E-01   -2.0300E+00   -3.0530E+00
  6.0270E-02   -2.2500E+00   -3.2190E+00
  2.4520E-02   -2.4310E+00   -3.3500E+00
  6.1580E-03   -2.5670E+00   -3.4430E+00
 -5.6740E-05   -2.6500E+00   -3.4990E+00
  0.0000E+00   -2.6780E+00   -3.5180E+00
  1.3780E+00   -1.2320E-03   -6.2940E-01
  1.2920E+00   -2.6160E-02   -7.6350E-01
  1.1640E+00   -9.0780E-02   -9.6700E-01
  1.0100E+00   -2.0090E-01   -1.2180E+00
  8.4450E-01   -3.5480E-01   -1.4980E+00
  6.7950E-01   -5.4550E-01   -1.7900E+00
  5.2460E-01   -7.6330E-01   -2.0790E+00
  3.8630E-01   -9.9720E-01   -2.3570E+00
  2.6880E-01   -1.2360E+00   -2.6140E+00
  1.7420E-01   -1.4680E+00   -2.8450E+00
  1.0260E-01   -1.6850E+00   -3.0460E+00
  5.2530E-02   -1.8750E+00   -3.2140E+00
  2.1370E-02   -2.0330E+00   -3.3460E+00
  5.3540E-03   -2.1500E+00   -3.4410E+00
 -4.9280E-05   -2.2220E+00   -3.4990E+00
  0.0000E+00   -2.2470E+00   -3.5180E+00
  1.1330E+00   -7.3900E-04   -7.7450E-01
  1.0670E+00   -1.9070E-02   -8.8980E-01
  9.6700E-01   -6.7890E-02   -1.0680E+00
  8.4400E-01   -1.5330E-01   -1.2920E+00
  7.0960E-01   -2.7520E-01   -1.5460E+00
  5.7390E-01   -4.2930E-01   -1.8150E+00
  4.4500E-01   -6.0790E-01   -2.0850E+00
  3.2890E-01   -8.0210E-01   -2.3480E+00
  2.2950E-01   -1.0020E+00   -2.5940E+00
  1.4900E-01   -1.1990E+00   -2.8170E+00
  8.7800E-02   -1.3830E+00   -3.0120E+00
  4.4910E-02   -1.5450E+00   -3.1760E+00
  1.8180E-02   -1.6800E+00   -3.3060E+00
  4.4730E-03   -1.7810E+00   -3.4000E+00
 -1.1360E-04   -1.8430E+00   -3.4570E+00
  0.0000E+00   -1.8640E+00   -3.4760E+00
  9.2010E-01   -4.0290E-04   -9.1960E-01
  8.6920E-01   -1.3950E-02   -1.0180E+00
  7.9100E-01   -5.0820E-02   -1.1730E+00
  6.9390E-01   -1.1660E-01   -1.3700E+00
  5.8640E-01   -2.1220E-01   -1.5970E+00
  4.7650E-01   -3.3490E-01   -1.8410E+00
  3.7110E-01   -4.7910E-01   -2.0890E+00
  2.7520E-01   -6.3780E-01   -2.3320E+00
  1.9270E-01   -8.0290E-01   -2.5620E+00
  1.2530E-01   -9.6620E-01   -2.7730E+00
  7.3920E-02   -1.1200E+00   -2.9580E+00
  3.7800E-02   -1.2570E+00   -3.1150E+00
  1.5250E-02   -1.3700E+00   -3.2390E+00
  3.6970E-03   -1.4550E+00   -3.3300E+00
 -1.4220E-04   -1.5070E+00   -3.3840E+00
  0.0000E+00   -1.5250E+00   -3.4030E+00
  7.3580E-01   -1.7380E-04   -1.0630E+00
  6.9680E-01   -1.0160E-02   -1.1470E+00
  6.3650E-01   -3.7870E-02   -1.2800E+00
  5.6070E-01   -8.8080E-02   -1.4520E+00
  4.7590E-01   -1.6210E-01   -1.6510E+00
  3.8840E-01   -2.5850E-01   -1.8680E+00
  3.0360E-01   -3.7310E-01   -2.0920E+00
  2.2600E-01   -5.0050E-01   -2.3130E+00
  1.5860E-01   -6.3420E-01   -2.5230E+00
  1.0340E-01   -7.6740E-01   -2.7180E+00
  6.1070E-02   -8.9340E-01   -2.8900E+00
  3.1230E-02   -1.0060E+00   -3.0360E+00
  1.2560E-02   -1.1000E+00   -3.1530E+00
  3.0000E-03   -1.1700E+00   -3.2380E+00
 -1.5520E-04   -1.2140E+00   -3.2890E+00
  0.0000E+00   -1.2280E+00   -3.3070E+00
  5.7830E-01   -1.5910E-05   -1.2020E+00
  5.4870E-01   -7.3240E-03   -1.2730E+00
  5.0270E-01   -2.7970E-02   -1.3860E+00
  4.4440E-01   -6.5850E-02   -1.5340E+00
  3.7860E-01   -1.2240E-01   -1.7070E+00
  3.1020E-01   -1.9680E-01   -1.8970E+00
  2.4330E-01   -2.8630E-01   -2.0940E+00
  1.8160E-01   -3.8660E-01   -2.2910E+00
  1.2780E-01   -4.9270E-01   -2.4800E+00
  8.3480E-02   -5.9920E-01   -2.6560E+00
  4.9330E-02   -7.0050E-01   -2.8120E+00
  2.5200E-02   -7.9140E-01   -2.9460E+00
  1.0090E-02   -8.6730E-01   -3.0530E+00
  2.3530E-03   -9.2440E-01   -3.1310E+00
 -1.7090E-04   -9.5980E-01   -3.1780E+00
  0.0000E+00   -9.7180E-01   -3.1940E+00
  4.4540E-01    9.5930E-05   -1.3350E+00
  4.2330E-01   -5.1720E-03   -1.3950E+00
  3.8870E-01   -2.0340E-02   -1.4900E+00
  3.4460E-01   -4.8500E-02   -1.6150E+00
  2.9450E-01   -9.0960E-02   -1.7630E+00
  2.4200E-01   -1.4740E-01   -1.9260E+00
  1.9040E-01   -2.1580E-01   -2.0970E+00
  1.4250E-01   -2.9310E-01   -2.2690E+00