# vtk DataFile Version 3.0 
vtk output 
ASCII 
DATASET UNSTRUCTURED_GRID 
POINTS           578 float
  1.0020E+01    0.0000E+00   -0.0000E+00
  9.9800E+00    0.0000E+00   -0.0000E+00
  3.0840E+00    0.0000E+00    9.4915E+00
  3.0964E+00    0.0000E+00    9.5296E+00
  9.9492E+00    0.0000E+00    7.8300E-01
  9.8571E+00    0.0000E+00    1.5612E+00
  9.7043E+00    0.0000E+00    2.3298E+00
  9.4915E+00    0.0000E+00    3.0840E+00
  9.2203E+00    0.0000E+00    3.8192E+00
  8.8922E+00    0.0000E+00    4.5308E+00
  8.5093E+00    0.0000E+00    5.2145E+00
  8.0740E+00    0.0000E+00    5.8661E+00
  7.5889E+00    0.0000E+00    6.4815E+00
  7.0569E+00    0.0000E+00    7.0569E+00
  6.4815E+00    0.0000E+00    7.5889E+00
  5.8661E+00    0.0000E+00    8.0740E+00
  5.2145E+00    0.0000E+00    8.5093E+00
  4.5308E+00    0.0000E+00    8.8922E+00
  3.8192E+00    0.0000E+00    9.2203E+00
  9.9891E+00    0.0000E+00    7.8620E-01
  9.8966E+00    0.0000E+00    1.5675E+00
  9.7431E+00    0.0000E+00    2.3391E+00
  9.5296E+00    0.0000E+00    3.0964E+00
  9.2573E+00    0.0000E+00    3.8345E+00
  8.9279E+00    0.0000E+00    4.5490E+00
  8.5435E+00    0.0000E+00    5.2354E+00
  8.1064E+00    0.0000E+00    5.8896E+00
  7.6193E+00    0.0000E+00    6.5075E+00
  7.0852E+00    0.0000E+00    7.0852E+00
  6.5075E+00    0.0000E+00    7.6193E+00
  5.8896E+00    0.0000E+00    8.1064E+00
  5.2354E+00    0.0000E+00    8.5435E+00
  4.5490E+00    0.0000E+00    8.9279E+00
  3.8345E+00    0.0000E+00    9.2573E+00
  9.9718E+00    9.8210E-01   -0.0000E+00
  9.8275E+00    1.9548E+00   -0.0000E+00
  9.5885E+00    2.9087E+00   -0.0000E+00
  9.2573E+00    3.8345E+00   -0.0000E+00
  8.8369E+00    4.7234E+00   -0.0000E+00
  8.3313E+00    5.5668E+00   -0.0000E+00
  7.7456E+00    6.3566E+00   -0.0000E+00
  7.0852E+00    7.0852E+00   -0.0000E+00
  6.3566E+00    7.7456E+00   -0.0000E+00
  5.5668E+00    8.3313E+00   -0.0000E+00
  4.7234E+00    8.8369E+00   -0.0000E+00
  3.8345E+00    9.2573E+00   -0.0000E+00
  2.9087E+00    9.5885E+00   -0.0000E+00
  1.9548E+00    9.8275E+00   -0.0000E+00
  9.8210E-01    9.9718E+00   -0.0000E+00
  0.0000E+00    1.0020E+01   -0.0000E+00
  9.9319E+00    9.7820E-01   -0.0000E+00
  9.7882E+00    1.9470E+00   -0.0000E+00
  9.5503E+00    2.8970E+00   -0.0000E+00
  9.2203E+00    3.8192E+00   -0.0000E+00
  8.8016E+00    4.7045E+00   -0.0000E+00
  8.2981E+00    5.5446E+00   -0.0000E+00
  7.7146E+00    6.3312E+00   -0.0000E+00
  7.0569E+00    7.0569E+00   -0.0000E+00
  6.3312E+00    7.7146E+00   -0.0000E+00
  5.5446E+00    8.2981E+00   -0.0000E+00
  4.7045E+00    8.8016E+00   -0.0000E+00
  3.8192E+00    9.2203E+00   -0.0000E+00
  2.8970E+00    9.5503E+00   -0.0000E+00
  1.9470E+00    9.7882E+00   -0.0000E+00
  9.7820E-01    9.9319E+00   -0.0000E+00
 -0.0000E+00    9.9800E+00   -0.0000E+00
  9.9013E+00    9.7520E-01    7.8300E-01
  9.7581E+00    1.9410E+00    7.8300E-01
  9.5208E+00    2.8881E+00    7.8300E-01
  9.1919E+00    3.8074E+00    7.8300E-01
  8.7744E+00    4.6900E+00    7.8300E-01
  8.2725E+00    5.5275E+00    7.8300E-01
  7.6909E+00    6.3117E+00    7.8300E-01
  7.0352E+00    7.0352E+00    7.8300E-01
  6.3117E+00    7.6909E+00    7.8300E-01
  5.5275E+00    8.2725E+00    7.8300E-01
  4.6900E+00    8.7744E+00    7.8300E-01
  3.8074E+00    9.1919E+00    7.8300E-01
  2.8881E+00    9.5208E+00    7.8300E-01
  1.9410E+00    9.7581E+00    7.8300E-01
  9.7520E-01    9.9013E+00    7.8300E-01
  0.0000E+00    9.9492E+00    7.8300E-01
  9.8097E+00    9.6620E-01    1.5612E+00
  9.6677E+00    1.9230E+00    1.5612E+00
  9.4327E+00    2.8614E+00    1.5612E+00
  9.1068E+00    3.7722E+00    1.5612E+00
  8.6932E+00    4.6466E+00    1.5612E+00
  8.1959E+00    5.4763E+00    1.5612E+00
  7.6197E+00    6.2533E+00    1.5612E+00
  6.9700E+00    6.9700E+00    1.5612E+00
  6.2533E+00    7.6197E+00    1.5612E+00
  5.4763E+00    8.1959E+00    1.5612E+00
  4.6466E+00    8.6932E+00    1.5612E+00
  3.7722E+00    9.1068E+00    1.5612E+00
  2.8614E+00    9.4327E+00    1.5612E+00
  1.9230E+00    9.6677E+00    1.5612E+00
  9.6620E-01    9.8097E+00    1.5612E+00
 -0.0000E+00    9.8571E+00    1.5612E+00
  9.6575E+00    9.5120E-01    2.3298E+00
  9.5178E+00    1.8932E+00    2.3298E+00
  9.2864E+00    2.8170E+00    2.3298E+00
  8.9656E+00    3.7137E+00    2.3298E+00
  8.5584E+00    4.5746E+00    2.3298E+00
  8.0688E+00    5.3914E+00    2.3298E+00
  7.5015E+00    6.1563E+00    2.3298E+00
  6.8619E+00    6.8619E+00    2.3298E+00
  6.1563E+00    7.5015E+00    2.3298E+00
  5.3914E+00    8.0688E+00    2.3298E+00
  4.5746E+00    8.5584E+00    2.3298E+00
  3.7137E+00    8.9656E+00    2.3298E+00
  2.8170E+00    9.2864E+00    2.3298E+00
  1.8932E+00    9.5178E+00    2.3298E+00
  9.5120E-01    9.6575E+00    2.3298E+00
  0.0000E+00    9.7043E+00    2.3298E+00
  9.4458E+00    9.3030E-01    3.0840E+00
  9.3092E+00    1.8517E+00    3.0840E+00
  9.0828E+00    2.7552E+00    3.0840E+00
  8.7690E+00    3.6323E+00    3.0840E+00
  8.3708E+00    4.4743E+00    3.0840E+00
  7.8919E+00    5.2732E+00    3.0840E+00
  7.3371E+00    6.0214E+00    3.0840E+00
  6.7115E+00    6.7115E+00    3.0840E+00
  6.0214E+00    7.3371E+00    3.0840E+00
  5.2732E+00    7.8919E+00    3.0840E+00
  4.4743E+00    8.3708E+00    3.0840E+00
  3.6323E+00    8.7690E+00    3.0840E+00
  2.7552E+00    9.0828E+00    3.0840E+00
  1.8517E+00    9.3092E+00    3.0840E+00
  9.3030E-01    9.4458E+00    3.0840E+00
  0.0000E+00    9.4915E+00    3.0840E+00
  9.1759E+00    9.0370E-01    3.8192E+00
  9.0432E+00    1.7988E+00    3.8192E+00
  8.8233E+00    2.6765E+00    3.8192E+00
  8.5185E+00    3.5285E+00    3.8192E+00
  8.1316E+00    4.3464E+00    3.8192E+00
  7.6664E+00    5.1225E+00    3.8192E+00
  7.1274E+00    5.8493E+00    3.8192E+00
  6.5197E+00    6.5197E+00    3.8192E+00
  5.8493E+00    7.1274E+00    3.8192E+00
  5.1225E+00    7.6664E+00    3.8192E+00
  4.3464E+00    8.1316E+00    3.8192E+00
  3.5285E+00    8.5185E+00    3.8192E+00
  2.6765E+00    8.8233E+00    3.8192E+00
  1.7988E+00    9.0432E+00    3.8192E+00
  9.0370E-01    9.1759E+00    3.8192E+00
 -0.0000E+00    9.2203E+00    3.8192E+00
  8.8494E+00    8.7160E-01    4.5308E+00
  8.7214E+00    1.7348E+00    4.5308E+00
  8.5093E+00    2.5813E+00    4.5308E+00
  8.2154E+00    3.4029E+00    4.5308E+00
  7.8423E+00    4.1918E+00    4.5308E+00
  7.3936E+00    4.9403E+00    4.5308E+00
  6.8738E+00    5.6412E+00    4.5308E+00
  6.2878E+00    6.2878E+00    4.5308E+00
  5.6412E+00    6.8738E+00    4.5308E+00
  4.9403E+00    7.3936E+00    4.5308E+00
  4.1918E+00    7.8423E+00    4.5308E+00
  3.4029E+00    8.2154E+00    4.5308E+00
  2.5813E+00    8.5093E+00    4.5308E+00
  1.7348E+00    8.7214E+00    4.5308E+00
  8.7160E-01    8.8494E+00    4.5308E+00
  0.0000E+00    8.8922E+00    4.5308E+00
  8.4684E+00    8.3410E-01    5.2145E+00
  8.3458E+00    1.6601E+00    5.2145E+00
  8.1429E+00    2.4701E+00    5.2145E+00
  7.8616E+00    3.2564E+00    5.2145E+00
  7.5046E+00    4.0113E+00    5.2145E+00
  7.0753E+00    4.7275E+00    5.2145E+00
  6.5778E+00    5.3983E+00    5.2145E+00
  6.0170E+00    6.0170E+00    5.2145E+00
  5.3983E+00    6.5778E+00    5.2145E+00
  4.7275E+00    7.0753E+00    5.2145E+00
  4.0113E+00    7.5046E+00    5.2145E+00
  3.2564E+00    7.8616E+00    5.2145E+00
  2.4701E+00    8.1429E+00    5.2145E+00
  1.6601E+00    8.3458E+00    5.2145E+00
  8.3410E-01    8.4684E+00    5.2145E+00
  0.0000E+00    8.5093E+00    5.2145E+00
  8.0351E+00    7.9140E-01    5.8661E+00
  7.9189E+00    1.5752E+00    5.8661E+00
  7.7263E+00    2.3438E+00    5.8661E+00
  7.4594E+00    3.0898E+00    5.8661E+00
  7.1206E+00    3.8061E+00    5.8661E+00
  6.7133E+00    4.4857E+00    5.8661E+00
  6.2413E+00    5.1221E+00    5.8661E+00
  5.7092E+00    5.7092E+00    5.8661E+00
  5.1221E+00    6.2413E+00    5.8661E+00
  4.4857E+00    6.7133E+00    5.8661E+00
  3.8061E+00    7.1206E+00    5.8661E+00
  3.0898E+00    7.4594E+00    5.8661E+00
  2.3438E+00    7.7263E+00    5.8661E+00
  1.5752E+00    7.9189E+00    5.8661E+00
  7.9140E-01    8.0351E+00    5.8661E+00
 -0.0000E+00    8.0740E+00    5.8661E+00
  7.5523E+00    7.4380E-01    6.4815E+00
  7.4430E+00    1.4805E+00    6.4815E+00
  7.2621E+00    2.2029E+00    6.4815E+00
  7.0112E+00    2.9041E+00    6.4815E+00
  6.6928E+00    3.5774E+00    6.4815E+00
  6.3099E+00    4.2161E+00    6.4815E+00
  5.8663E+00    4.8143E+00    6.4815E+00
  5.3661E+00    5.3661E+00    6.4815E+00
  4.8143E+00    5.8663E+00    6.4815E+00
  4.2161E+00    6.3099E+00    6.4815E+00
  3.5774E+00    6.6928E+00    6.4815E+00
  2.9041E+00    7.0112E+00    6.4815E+00
  2.2029E+00    7.2621E+00    6.4815E+00
  1.4805E+00    7.4430E+00    6.4815E+00
  7.4380E-01    7.5523E+00    6.4815E+00
  0.0000E+00    7.5889E+00    6.4815E+00
  7.0229E+00    6.9170E-01    7.0569E+00
  6.9213E+00    1.3767E+00    7.0569E+00
  6.7531E+00    2.0485E+00    7.0569E+00
  6.5197E+00    2.7006E+00    7.0569E+00
  6.2237E+00    3.3266E+00    7.0569E+00
  5.8676E+00    3.9206E+00    7.0569E+00
  5.4551E+00    4.4769E+00    7.0569E+00
  4.9900E+00    4.9900E+00    7.0569E+00
  4.4769E+00    5.4551E+00    7.0569E+00
  3.9206E+00    5.8676E+00    7.0569E+00
  3.3266E+00    6.2237E+00    7.0569E+00
  2.7006E+00    6.5197E+00    7.0569E+00
  2.0485E+00    6.7531E+00    7.0569E+00
  1.3767E+00    6.9213E+00    7.0569E+00
  6.9170E-01    7.0229E+00    7.0569E+00
  0.0000E+00    7.0569E+00    7.0569E+00
  6.4503E+00    6.3530E-01    7.5889E+00
  6.3570E+00    1.2645E+00    7.5889E+00
  6.2024E+00    1.8815E+00    7.5889E+00
  5.9881E+00    2.4804E+00    7.5889E+00
  5.7162E+00    3.0554E+00    7.5889E+00
  5.3892E+00    3.6009E+00    7.5889E+00
  5.0103E+00    4.1118E+00    7.5889E+00
  4.5831E+00    4.5831E+00    7.5889E+00
  4.1118E+00    5.0103E+00    7.5889E+00
[...]
POINT_DATA           578  
VECTORS deplacement   float64  
  2.3070E+00    0.0000E+00    0.0000E+00
  2.3120E+00    0.0000E+00   -1.8600E-02
  2.5750E-02    0.0000E+00   -1.5220E+00
  2.3540E-02    0.0000E+00   -1.5210E+00
  1.9670E+00    0.0000E+00   -1.1260E-01
  1.6620E+00    0.0000E+00   -2.1440E-01
  1.3930E+00    0.0000E+00   -3.2180E-01
  1.1560E+00    0.0000E+00   -4.3310E-01
  9.4980E-01    0.0000E+00   -5.4640E-01
  7.7050E-01    0.0000E+00   -6.6010E-01
  6.1620E-01    0.0000E+00   -7.7260E-01
  4.8460E-01    0.0000E+00   -8.8250E-01
  3.7380E-01    0.0000E+00   -9.8830E-01
  2.8190E-01    0.0000E+00   -1.0890E+00
  2.0680E-01    0.0000E+00   -1.1830E+00
  1.4700E-01    0.0000E+00   -1.2700E+00
  1.0070E-01    0.0000E+00   -1.3480E+00
  6.6100E-02    0.0000E+00   -1.4170E+00
  4.1850E-02    0.0000E+00   -1.4740E+00
  1.9620E+00    0.0000E+00   -9.6060E-02
  1.6570E+00    0.0000E+00   -1.9980E-01
  1.3870E+00    0.0000E+00   -3.0900E-01
  1.1510E+00    0.0000E+00   -4.2180E-01
  9.4400E-01    0.0000E+00   -5.3660E-01
  7.6470E-01    0.0000E+00   -6.5160E-01
  6.1050E-01    0.0000E+00   -7.6530E-01
  4.7910E-01    0.0000E+00   -8.7630E-01
  3.6850E-01    0.0000E+00   -9.8320E-01
  2.7690E-01    0.0000E+00   -1.0850E+00
  2.0220E-01    0.0000E+00   -1.1800E+00
  1.4280E-01    0.0000E+00   -1.2670E+00
  9.6890E-02    0.0000E+00   -1.3460E+00
  6.2850E-02    0.0000E+00   -1.4150E+00
  3.9200E-02    0.0000E+00   -1.4730E+00
  2.2300E+00   -5.2510E-03   -6.6830E-02
  2.0400E+00   -6.5690E-02   -2.3400E-01
  1.7950E+00   -1.9110E-01   -4.5690E-01
  1.5260E+00   -3.7820E-01   -7.0890E-01
  1.2560E+00   -6.1660E-01   -9.7120E-01
  9.9910E-01   -8.9430E-01   -1.2310E+00
  7.6620E-01   -1.1980E+00   -1.4780E+00
  5.6310E-01   -1.5150E+00   -1.7080E+00
  3.9310E-01   -1.8320E+00   -1.9140E+00
  2.5710E-01   -2.1390E+00   -2.0930E+00
  1.5410E-01   -2.4240E+00   -2.2440E+00
  8.1530E-02   -2.6780E+00   -2.3650E+00
  3.5270E-02   -2.8920E+00   -2.4560E+00
  1.0430E-02   -3.0590E+00   -2.5160E+00
  4.6400E-04   -3.1740E+00   -2.5450E+00
  0.0000E+00   -3.2190E+00   -2.5510E+00
  2.2350E+00   -1.2720E-02   -8.3310E-02
  2.0470E+00   -7.6620E-02   -2.4630E-01
  1.8030E+00   -2.0360E-01   -4.6480E-01
  1.5350E+00   -3.9090E-01   -7.1260E-01
  1.2650E+00   -6.2840E-01   -9.7070E-01
  1.0100E+00   -9.0460E-01   -1.2270E+00
  7.7700E-01   -1.2060E+00   -1.4710E+00
  5.7400E-01   -1.5210E+00   -1.6970E+00
  4.0390E-01   -1.8360E+00   -1.9000E+00
  2.6730E-01   -2.1400E+00   -2.0780E+00
  1.6350E-01   -2.4230E+00   -2.2270E+00
  8.9730E-02   -2.6750E+00   -2.3460E+00
  4.2050E-02   -2.8880E+00   -2.4350E+00
  1.5460E-02   -3.0530E+00   -2.4940E+00
  3.9170E-03   -3.1670E+00   -2.5220E+00
  0.0000E+00   -3.2120E+00   -2.5270E+00
  1.9130E+00   -8.3820E-03   -1.6560E-01
  1.7690E+00   -5.3790E-02   -3.0800E-01
  1.5710E+00   -1.5150E-01   -5.0950E-01
  1.3470E+00   -3.0210E-01   -7.4570E-01
  1.1170E+00   -4.9980E-01   -9.9840E-01
  8.9430E-01   -7.3480E-01   -1.2540E+00
  6.8960E-01   -9.9590E-01   -1.5020E+00
  5.0940E-01   -1.2710E+00   -1.7350E+00
  3.5740E-01   -1.5500E+00   -1.9480E+00
  2.3500E-01   -1.8210E+00   -2.1360E+00
  1.4190E-01   -2.0730E+00   -2.2970E+00
  7.5920E-02   -2.2980E+00   -2.4280E+00
  3.3730E-02   -2.4860E+00   -2.5290E+00
  1.0840E-02   -2.6310E+00   -2.6000E+00
  1.7170E-03   -2.7250E+00   -2.6390E+00
  0.0000E+00   -2.7580E+00   -2.6520E+00
  1.6220E+00   -5.9390E-03   -2.5890E-01
  1.5120E+00   -3.8820E-02   -3.8300E-01
  1.3540E+00   -1.1340E-01   -5.6560E-01
  1.1690E+00   -2.3310E-01   -7.8610E-01
  9.7560E-01   -3.9480E-01   -1.0280E+00
  7.8530E-01   -5.9130E-01   -1.2760E+00
  6.0800E-01   -8.1330E-01   -1.5220E+00
  4.5050E-01   -1.0500E+00   -1.7560E+00
  3.1660E-01   -1.2920E+00   -1.9720E+00
  2.0830E-01   -1.5290E+00   -2.1660E+00
  1.2570E-01   -1.7500E+00   -2.3330E+00
  6.7080E-02   -1.9460E+00   -2.4720E+00
  2.9710E-02   -2.1110E+00   -2.5800E+00
  9.5520E-03   -2.2350E+00   -2.6580E+00
  1.5800E-03   -2.3130E+00   -2.7040E+00
  0.0000E+00   -2.3400E+00   -2.7190E+00
  1.3620E+00   -4.4290E-03   -3.6000E-01
  1.2770E+00   -2.8830E-02   -4.6830E-01
  1.1510E+00   -8.6140E-02   -6.3210E-01
  1.0010E+00   -1.8100E-01   -8.3450E-01
  8.4010E-01   -3.1230E-01   -1.0610E+00
  6.7960E-01   -4.7480E-01   -1.2980E+00
  5.2840E-01   -6.6120E-01   -1.5350E+00
  3.9280E-01   -8.6260E-01   -1.7630E+00
  2.7670E-01   -1.0700E+00   -1.9770E+00
  1.8250E-01   -1.2730E+00   -2.1700E+00
  1.1030E-01   -1.4640E+00   -2.3380E+00
  5.8990E-02   -1.6340E+00   -2.4790E+00
  2.6280E-02   -1.7760E+00   -2.5910E+00
  8.6080E-03   -1.8820E+00   -2.6710E+00
  1.5510E-03   -1.9490E+00   -2.7200E+00
  0.0000E+00   -1.9710E+00   -2.7360E+00
  1.1330E+00   -3.3820E-03   -4.6600E-01
  1.0670E+00   -2.1780E-02   -5.6050E-01
  9.6720E-01   -6.5970E-02   -7.0610E-01
  8.4560E-01   -1.4090E-01   -8.8950E-01
  7.1320E-01   -2.4670E-01   -1.0980E+00
  5.7960E-01   -3.7990E-01   -1.3190E+00
  4.5230E-01   -5.3460E-01   -1.5430E+00
  3.3720E-01   -7.0350E-01   -1.7620E+00
  2.3810E-01   -8.7870E-01   -1.9680E+00
  1.5720E-01   -1.0520E+00   -2.1550E+00
  9.5080E-02   -1.2150E+00   -2.3210E+00
  5.0880E-02   -1.3600E+00   -2.4600E+00
  2.2650E-02   -1.4820E+00   -2.5700E+00
  7.4030E-03   -1.5730E+00   -2.6500E+00
  1.3290E-03   -1.6290E+00   -2.6990E+00
  0.0000E+00   -1.6490E+00   -2.7150E+00
  9.3190E-01   -2.6300E-03   -5.7480E-01
  8.8040E-01   -1.6620E-02   -6.5700E-01
  8.0180E-01   -5.0670E-02   -7.8540E-01
  7.0450E-01   -1.0950E-01   -9.4950E-01
  5.9700E-01   -1.9390E-01   -1.1380E+00
  4.8720E-01   -3.0180E-01   -1.3420E+00
  3.8170E-01   -4.2860E-01   -1.5500E+00
  2.8540E-01   -5.6850E-01   -1.7540E+00
  2.0200E-01   -7.1460E-01   -1.9490E+00
  1.3360E-01   -8.5980E-01   -2.1280E+00
  8.0880E-02   -9.9720E-01   -2.2860E+00
  4.3280E-02   -1.1200E+00   -2.4200E+00
  1.9260E-02   -1.2230E+00   -2.5270E+00
  6.2780E-03   -1.3000E+00   -2.6050E+00
  1.1200E-03   -1.3480E+00   -2.6520E+00
  0.0000E+00   -1.3640E+00   -2.6680E+00
  7.5670E-01   -2.0680E-03   -6.8450E-01
  7.1680E-01   -1.2750E-02   -7.5570E-01
  6.5530E-01   -3.8970E-02   -8.6800E-01
  5.7820E-01   -8.4780E-02   -1.0130E+00
  4.9210E-01   -1.5150E-01   -1.1820E+00
  4.0320E-01   -2.3770E-01   -1.3660E+00
  3.1700E-01   -3.4020E-01   -1.5550E+00
  2.3780E-01   -4.5420E-01   -1.7440E+00
  1.6880E-01   -5.7420E-01   -1.9240E+00
  1.1190E-01   -6.9420E-01   -2.0910E+00
  6.7850E-02   -8.0820E-01   -2.2390E+00
  3.6370E-02   -9.1050E-01   -2.3650E+00
  1.6220E-02   -9.9590E-01   -2.4670E+00
  5.3190E-03   -1.0600E+00   -2.5400E+00
  9.6450E-04   -1.1000E+00   -2.5850E+00
  0.0000E+00   -1.1140E+00   -2.6000E+00
  6.0560E-01   -1.6370E-03   -7.9350E-01
  5.7490E-01   -9.8020E-03   -8.5480E-01
  5.2720E-01   -2.9860E-02   -9.5190E-01
  4.6690E-01   -6.5270E-02   -1.0790E+00
  3.9880E-01   -1.1730E-01   -1.2270E+00
  3.2800E-01   -1.8530E-01   -1.3910E+00
  2.5880E-01   -2.6690E-01   -1.5610E+00
  1.9470E-01   -3.5840E-01   -1.7310E+00
  1.3860E-01   -4.5520E-01   -1.8950E+00
  9.2110E-02   -5.5270E-01   -2.0480E+00
  5.5990E-02   -6.4560E-01   -2.1840E+00
  3.0100E-02   -7.2920E-01   -2.3010E+00
  1.3480E-02   -7.9920E-01   -2.3940E+00
  4.4610E-03   -8.5200E-01   -2.4630E+00
  8.3230E-04   -8.8490E-01   -2.5050E+00
  0.0000E+00   -8.9600E-01   -2.5180E+00
  4.7660E-01   -1.3050E-03   -9.0020E-01
  4.5320E-01   -7.5030E-03   -9.5240E-01
  4.1670E-01   -2.2730E-02   -1.0360E+00
  3.7010E-01   -4.9770E-02   -1.1450E+00
  3.1720E-01   -8.9860E-02   -1.2740E+00
  2.6180E-01   -1.4260E-01   -1.4170E+00
  2.0720E-01   -2.0640E-01   -1.5670E+00
  1.5640E-01   -2.7850E-01   -1.7180E+00
  1.1160E-01   -3.5520E-01   -1.8640E+00
  7.4370E-02   -4.3280E-01   -2.0010E+00
  4.5330E-02   -5.0710E-01   -2.1240E+00
  2.4450E-02   -5.7420E-01   -2.2290E+00
  1.1010E-02   -6.3050E-01   -2.3140E+00
  3.6820E-03   -6.7300E-01   -2.3770E+00
  7.1210E-04   -6.9940E-01   -2.4150E+00
  0.0000E+00   -7.0840E-01   -2.4270E+00
  3.6780E-01   -1.0400E-03   -1.0030E+00
  3.5020E-01   -5.7130E-03   -1.0470E+00
  3.2270E-01   -1.7130E-02   -1.1170E+00
  2.8740E-01   -3.7480E-02   -1.2100E+00
  2.4700E-01   -6.7820E-02   -1.3210E+00
  2.0450E-01   -1.0800E-01   -1.4430E+00
  1.6230E-01   -1.5700E-01   -1.5730E+00
  1.2290E-01   -2.1260E-01   -1.7050E+00
  8.7930E-02   -2.7210E-01   -1.8330E+00
  5.8760E-02   -3.3250E-01   -1.9530E+00
  3.5920E-02   -3.9060E-01   -2.0610E+00
  1.9450E-02   -4.4320E-01   -2.1550E+00
  8.8110E-03   -4.8750E-01   -2.2300E+00
  2.9910E-03   -5.2100E-01   -2.2850E+00
  6.0370E-04   -5.4180E-01   -2.3190E+00
  0.0000E+00   -5.4890E-01   -2.3310E+00
  2.7740E-01   -8.2980E-04   -1.1010E+00
  2.6450E-01   -4.3100E-03   -1.1380E+00
  2.4410E-01   -1.2730E-02   -1.1960E+00
  2.1780E-01   -2.7780E-02   -1.2740E+00
  1.8770E-01   -5.0280E-02   -1.3660E+00
  1.5580E-01   -8.0280E-02   -1.4700E+00
  1.2400E-01   -1.1690E-01   -1.5800E+00
  9.4130E-02   -1.5880E-01   -1.6920E+00
  6.7570E-02   -2.0380E-01   -1.8010E+00
  4.5290E-02   -2.4980E-01   -1.9050E+00
  2.7780E-02   -2.9400E-01   -1.9980E+00
  1.5120E-02   -3.3430E-01   -2.0790E+00
  6.9060E-03   -3.6820E-01   -2.1440E+00
  2.3890E-03   -3.9390E-01   -2.1920E+00
  5.0790E-04   -4.0990E-01   -2.2220E+00
  0.0000E+00   -4.1530E-01   -2.2320E+00
  2.0360E-01   -6.5990E-04   -1.1930E+00
  1.9430E-01   -3.2090E-03   -1.2230E+00
  1.7960E-01   -9.3070E-03   -1.2700E+00
  1.6060E-01   -2.0170E-02   -1.3340E+00
  1.3870E-01   -3.6470E-02   -1.4100E+00
  1.1530E-01   -5.8250E-02   -1.4950E+00
  9.2040E-02   -8.4990E-02   -1.5860E+00
  7.0050E-02   -1.1560E-01   -1.6800E+00
  5.0430E-02   -1.4870E-01   -1.7710E+00
  3.3910E-02   -1.8260E-01   -1.8580E+00
  2.0890E-02   -2.1540E-01   -1.9360E+00
  1.1440E-02   -2.4520E-01   -2.0050E+00
  5.2810E-03   -2.7040E-01   -2.0600E+00
  1.8680E-03   -2.8950E-01   -2.1010E+00
  4.2300E-04   -3.0140E-01   -2.1250E+00
  0.0000E+00   -3.0550E-01   -2.1340E+00
  1.4480E-01   -5.2380E-04   -1.2780E+00
  1.3830E-01   -2.3590E-03   -1.3010E+00
  1.2790E-01   -6.6640E-03   -1.3390E+00
  1.1450E-01   -1.4300E-02   -1.3900E+00
  9.9090E-02   -2.5760E-02   -1.4510E+00
  8.2590E-02   -4.1100E-02   -1.5200E+00
  6.6060E-02   -5.9980E-02   -1.5930E+00
  5.0410E-02   -8.1690E-02   -1.6690E+00
  3.6400E-02   -1.0520E-01   -1.7430E+00
  2.4570E-02   -1.2930E-01   -1.8140E+00
  1.5220E-02   -1.5270E-01   -1.8780E+00
  8.3960E-03   -1.7400E-01   -1.9340E+00
  3.9350E-03   -1.9200E-01   -1.9790E+00
  1.4380E-03   -2.0570E-01   -2.0120E+00
  3.5180E-04   -2.1430E-01   -2.0330E+00
  0.0000E+00   -2.1720E-01   -2.0400E+00
  9.9150E-02   -4.2020E-04   -1.3540E+00
  9.4730E-02   -1.7200E-03   -1.3720E+00
  8.7720E-02   -4.6750E-03   -1.4020E+00
  7.8640E-02   -9.8770E-03   -1.4410E+00
  6.8140E-02   -1.7660E-02   -1.4890E+00
  5.6890E-02   -2.8080E-02   -1.5420E+00
  4.5600E-02   -4.0920E-02   -1.6000E+00
  3.4890E-02   -5.5700E-02   -1.6590E+00
  2.5280E-02   -7.1720E-02   -1.7170E+00
  1.7140E-02   -8.8180E-02   -1.7730E+00
  1.0690E-02   -1.0420E-01   -1.8240E+00
  5.9700E-03   -1.1870E-01   -1.8680E+00
  2.8580E-03   -1.3110E-01   -1.9040E+00
  1.0940E-03   -1.4050E-01   -1.9300E+00
  2.9480E-04   -1.4630E-01   -1.9460E+00
  0.0000E+00   -1.4830E-01   -1.9520E+00
  6.5120E-02   -3.3650E-04   -1.4210E+00
  6.2240E-02   -1.2370E-03   -1.4350E+00
  5.7680E-02   -3.2050E-03   -1.4570E+00
  5.1770E-02   -6.6180E-03   -1.4860E+00
  4.4910E-02   -1.1700E-02   -1.5220E+00
  3.7560E-02   -1.8490E-02   -1.5620E+00
  3.0160E-02   -2.6860E-02   -1.6060E+00
  2.3140E-02   -3.6490E-02   -1.6500E+00
  1.6820E-02   -4.6940E-02   -1.6940E+00
  1.1460E-02   -5.7680E-02   -1.7370E+00
  7.2010E-03   -6.8110E-02   -1.7750E+00
  4.0700E-03   -7.7650E-02   -1.8090E+00
  1.9930E-03   -8.5720E-02   -1.8360E+00
  7.9580E-04   -9.1870E-02   -1.8560E+00
  2.3280E-04   -9.5700E-02   -1.8690E+00
  0.0000E+00   -9.7010E-02   -1.8730E+00
  4.1240E-02   -2.4810E-04   -1.4780E+00
  3.9440E-02   -8.4430E-04   -1.4870E+00
  3.6580E-02   -2.0980E-03   -1.5030E+00
  3.2870E-02   -4.2470E-03   -1.5240E+00
  2.8560E-02   -7.4340E-03   -1.5500E+00
  2.3930E-02   -1.1690E-02   -1.5790E+00
  1.9260E-02   -1.6930E-02   -1.6110E+00
  1.4810E-02   -2.2970E-02   -1.6430E+00
  1.0800E-02   -2.9530E-02   -1.6750E+00
  7.3910E-03   -3.6280E-02   -1.7060E+00
  4.6710E-03   -4.2850E-02   -1.7340E+00
  2.6640E-03   -4.8860E-02   -1.7580E+00
  1.3250E-03   -5.3950E-02   -1.7780E+00
  5.4470E-04   -5.7830E-02   -1.7930E+00
  1.6720E-04   -6.0260E-02   -1.8020E+00
  0.0000E+00   -6.1080E-02   -1.8050E+00
  2.5380E-02   -2.4880E-04   -1.5240E+00
  2.4320E-02   -6.9600E-04   -1.5310E+00
  2.2640E-02   -1.5180E-03   -1.5410E+00
  2.0440E-02   -2.8540E-03   -1.5560E+00
  1.7880E-02   -4.7850E-03   -1.5730E+00
  1.5120E-02   -7.3310E-03   -1.5930E+00
  1.2310E-02   -1.0450E-02   -1.6140E+00
  9.6240E-03   -1.4030E-02   -1.6360E+00
  7.1780E-03   -1.7910E-02   -1.6580E+00
  5.0720E-03   -2.1910E-02   -1.6790E+00
  3.3630E-03   -2.5790E-02   -1.6980E+00
  2.0650E-03   -2.9350E-02   -1.7140E+00
  1.1550E-03   -3.2370E-02   -1.7280E+00
  5.7260E-04   -3.4660E-02   -1.7380E+00
  2.2470E-04   -3.6100E-02   -1.7440E+00
  0.0000E+00   -3.6590E-02   -1.7470E+00
  2.3180E-02    1.2990E-04   -1.5240E+00
  2.2120E-02    5.1600E-05   -1.5300E+00
  2.0450E-02   -4.2330E-04   -1.5410E+00
  1.8290E-02   -1.4370E-03   -1.5550E+00
  1.5770E-02   -3.0830E-03   -1.5730E+00
  1.3070E-02   -5.3800E-03   -1.5930E+00
  1.0350E-02   -8.2860E-03   -1.6140E+00
  7.7750E-03   -1.1690E-02   -1.6360E+00
  5.4730E-03   -1.5440E-02   -1.6580E+00
  3.5410E-03   -1.9330E-02   -1.6790E+00
  2.0340E-03   -2.3140E-02   -1.6980E+00
  9.6630E-04   -2.6640E-02   -1.7150E+00
  3.1040E-04   -2.9620E-02   -1.7290E+00
 -2.0470E-06   -3.1890E-02   -1.7390E+00
 -6.5560E-05   -3.3310E-02   -1.7450E+00
  0.0000E+00   -3.3800E-02   -1.7480E+00
  1.9080E+00   -2.8940E-03   -1.5040E-01
  1.7630E+00   -4.4770E-02   -2.9610E-01
  1.5640E+00   -1.4070E-01   -5.0140E-01
  1.3390E+00   -2.9080E-01   -7.4160E-01
  1.1080E+00   -4.8880E-01   -9.9810E-01
  8.8500E-01   -7.2480E-01   -1.2570E+00
  6.8000E-01   -9.8740E-01   -1.5090E+00
  4.9960E-01   -1.2650E+00   -1.7450E+00
  3.4780E-01   -1.5450E+00   -1.9600E+00
  2.2600E-01   -1.8180E+00   -2.1510E+00
  1.3370E-01   -2.0720E+00   -2.3140E+00
  6.8750E-02   -2.2980E+00   -2.4470E+00
  2.7940E-02   -2.4880E+00   -2.5490E+00
  6.6000E-03   -2.6340E+00   -2.6210E+00
 -6.4190E-04   -2.7290E+00   -2.6620E+00
  0.0000E+00   -2.7630E+00   -2.6740E+00
  1.6160E+00   -1.7290E-03   -2.4530E-01
  1.5060E+00   -3.1460E-02   -3.7180E-01
  1.3470E+00   -1.0420E-01   -5.5750E-01
  1.1620E+00   -2.2300E-01   -7.8140E-01
  9.6760E-01   -3.8470E-01   -1.0260E+00
  7.7670E-01   -5.8180E-01   -1.2780E+00
  5.9920E-01   -8.0480E-01   -1.5270E+00
  4.4170E-01   -1.0430E+00   -1.7640E+00
  3.0810E-01   -1.2870E+00   -1.9830E+00
  2.0030E-01   -1.5250E+00   -2.1790E+00
  1.1840E-01   -1.7470E+00   -2.3480E+00
  6.0850E-02   -1.9450E+00   -2.4880E+00
  2.4730E-02   -2.1110E+00   -2.5980E+00
  6.0390E-03   -2.2360E+00   -2.6770E+00
 -2.5020E-04   -2.3150E+00   -2.7240E+00
  0.0000E+00   -2.3420E+00   -2.7390E+00
  1.3570E+00   -1.0880E-03   -3.4780E-01
  1.2710E+00   -2.2790E-02   -4.5800E-01
  1.1450E+00   -7.8290E-02   -6.2420E-01
  9.9410E-01   -1.7210E-01   -8.2950E-01
  8.3260E-01   -3.0310E-01   -1.0590E+00
  6.7170E-01   -4.6590E-01   -1.2990E+00
  5.2040E-01   -6.5290E-01   -1.5380E+00
  3.8480E-01   -8.5530E-01   -1.7700E+00
  2.6910E-01   -1.0630E+00   -1.9860E+00
  1.7530E-01   -1.2680E+00   -2.1810E+00
  1.0380E-01   -1.4600E+00   -2.3510E+00
  5.3490E-02   -1.6310E+00   -2.4940E+00
  2.1940E-02   -1.7740E+00   -2.6070E+00
  5.5900E-03   -1.8810E+00   -2.6880E+00
 -5.7600E-06   -1.9480E+00   -2.7370E+00
  0.0000E+00   -1.9710E+00   -2.7530E+00
  1.1270E+00   -6.6230E-04   -4.5520E-01
  1.0610E+00   -1.6750E-02   -5.5110E-01
  9.6080E-01   -5.9240E-02   -6.9880E-01
  8.3880E-01   -1.3310E-01   -8.8460E-01
  7.0620E-01   -2.3840E-01   -1.0950E+00
  5.7230E-01   -3.7160E-01   -1.3190E+00
  4.4500E-01   -5.2670E-01   -1.5460E+00
  3.3000E-01   -6.9630E-01   -1.7670E+00
  2.3120E-01   -8.7230E-01   -1.9750E+00
  1.5080E-01   -1.0460E+00   -2.1650E+00
  8.9300E-02   -1.2100E+00   -2.3320E+00
  4.5970E-02   -1.3570E+00   -2.4720E+00
  1.8800E-02   -1.4790E+00   -2.5840E+00
  4.7410E-03   -1.5700E+00   -2.6650E+00
 -3.2060E-05   -1.6270E+00   -2.7140E+00
  0.0000E+00   -1.6470E+00   -2.7300E+00
  9.2600E-01   -3.8940E-04   -5.6540E-01
  8.7440E-01   -1.2410E-02   -6.4870E-01
  7.9560E-01   -4.4910E-02   -7.7870E-01
  6.9800E-01   -1.0270E-01   -9.4490E-01
  5.9040E-01   -1.8650E-01   -1.1360E+00
  4.8040E-01   -2.9420E-01   -1.3410E+00
  3.7490E-01   -4.2120E-01   -1.5520E+00
  2.7880E-01   -5.6140E-01   -1.7590E+00
  1.9570E-01   -7.0810E-01   -1.9550E+00
  1.2780E-01   -8.5400E-01   -2.1360E+00
  7.5690E-02   -9.9210E-01   -2.2960E+00
  3.8910E-02   -1.1160E+00   -2.4310E+00
  1.5830E-02   -1.2190E+00   -2.5390E+00
  3.9260E-03   -1.2960E+00   -2.6180E+00
 -8.2300E-05   -1.3450E+00   -2.6650E+00
  0.0000E+00   -1.3610E+00   -2.6810E+00
  7.5090E-01   -1.9670E-04   -6.7640E-01
  7.1090E-01   -9.1960E-03   -7.4850E-01
  6.4920E-01   -3.4010E-02   -8.6200E-01
  5.7200E-01   -7.8830E-02   -1.0090E+00
  4.8580E-01   -1.4490E-01   -1.1800E+00
  3.9690E-01   -2.3080E-01   -1.3650E+00
  3.1080E-01   -3.3330E-01   -1.5570E+00
  2.3180E-01   -4.4750E-01   -1.7470E+00
  1.6310E-01   -5.6780E-01   -1.9290E+00
  1.0660E-01   -6.8830E-01   -2.0980E+00
  6.3180E-02   -8.0270E-01   -2.2480E+00
  3.2450E-02   -9.0550E-01   -2.3750E+00
  1.3160E-02   -9.9140E-01   -2.4770E+00
  3.2250E-03   -1.0560E+00   -2.5520E+00
 -1.0200E-04   -1.0960E+00   -2.5970E+00
  0.0000E+00   -1.1100E+00   -2.6120E+00
  5.9990E-01   -6.3610E-05   -7.8650E-01
  5.6910E-01   -6.7730E-03   -8.4840E-01
  5.2140E-01   -2.5600E-02   -9.4670E-01
  4.6100E-01   -6.0060E-02   -1.0750E+00
  3.9290E-01   -1.1150E-01   -1.2250E+00
  3.2210E-01   -1.7910E-01   -1.3900E+00
  2.5300E-01   -2.6050E-01   -1.5620E+00
  1.8920E-01   -3.5200E-01   -1.7340E+00
  1.3340E-01   -4.4910E-01   -1.9000E+00
  8.7340E-02   -5.4670E-01   -2.0540E+00
  5.1790E-02   -6.4000E-01   -2.1910E+00
  2.6590E-02   -7.2400E-01   -2.3090E+00
  1.0750E-02   -7.9430E-01   -2.4030E+00
  2.5940E-03   -8.4740E-01   -2.4730E+00
 -1.1500E-04   -8.8030E-01   -2.5150E+00
  0.0000E+00   -8.9150E-01   -2.5290E+00
  4.7110E-01    3.0430E-05   -8.9430E-01
  4.4770E-01   -4.9220E-03   -9.4700E-01
  4.1110E-01   -1.9060E-02   -1.0310E+00
  3.6450E-01   -4.5220E-02   -1.1410E+00
  3.1170E-01   -8.4640E-02   -1.2720E+00
  2.5630E-01   -1.3700E-01   -1.4160E+00
  2.0180E-01   -2.0050E-01   -1.5680E+00
  1.5130E-01   -2.7250E-01   -1.7200E+00
  1.0690E-01   -3.4930E-01   -1.8680E+00
  7.0060E-02   -4.2700E-01   -2.0060E+00
  4.1560E-02   -5.0150E-01   -2.1300E+00
  2.1300E-02   -5.6880E-01   -2.2360E+00
  8.5700E-03   -6.2530E-01   -2.3220E+00
  2.0200E-03   -6.6800E-01   -2.3850E+00
 -1.3060E-04   -6.9460E-01   -2.4230E+00
  0.0000E+00   -7.0360E-01   -2.4360E+00
  3.6250E-01    9.8210E-05   -9.9820E-01
  3.4500E-01   -3.4970E-03   -1.0430E+00
  3.1740E-01   -1.3950E-02   -1.1140E+00
  2.8210E-01   -3.3510E-02   -1.2070E+00
  2.4180E-01   -6.3210E-02   -1.3190E+00
  1.9940E-01   -1.0300E-01   -1.4430E+00
  1.5740E-01   -1.5160E-01   -1.5740E+00
  1.1820E-01   -2.0700E-01   -1.7060E+00