# vtk DataFile Version 3.0 
vtk output 
ASCII 
DATASET UNSTRUCTURED_GRID 
POINTS           578 float
  1.0020E+01    0.0000E+00   -0.0000E+00
  9.9800E+00    0.0000E+00   -0.0000E+00
  3.0840E+00    0.0000E+00    9.4915E+00
  3.0964E+00    0.0000E+00    9.5296E+00
  9.9492E+00    0.0000E+00    7.8300E-01
  9.8571E+00    0.0000E+00    1.5612E+00
  9.7043E+00    0.0000E+00    2.3298E+00
  9.4915E+00    0.0000E+00    3.0840E+00
  9.2203E+00    0.0000E+00    3.8192E+00
  8.8922E+00    0.0000E+00    4.5308E+00
  8.5093E+00    0.0000E+00    5.2145E+00
  8.0740E+00    0.0000E+00    5.8661E+00
  7.5889E+00    0.0000E+00    6.4815E+00
  7.0569E+00    0.0000E+00    7.0569E+00
  6.4815E+00    0.0000E+00    7.5889E+00
  5.8661E+00    0.0000E+00    8.0740E+00
  5.2145E+00    0.0000E+00    8.5093E+00
  4.5308E+00    0.0000E+00    8.8922E+00
  3.8192E+00    0.0000E+00    9.2203E+00
  9.9891E+00    0.0000E+00    7.8620E-01
  9.8966E+00    0.0000E+00    1.5675E+00
  9.7431E+00    0.0000E+00    2.3391E+00
  9.5296E+00    0.0000E+00    3.0964E+00
  9.2573E+00    0.0000E+00    3.8345E+00
  8.9279E+00    0.0000E+00    4.5490E+00
  8.5435E+00    0.0000E+00    5.2354E+00
  8.1064E+00    0.0000E+00    5.8896E+00
  7.6193E+00    0.0000E+00    6.5075E+00
  7.0852E+00    0.0000E+00    7.0852E+00
  6.5075E+00    0.0000E+00    7.6193E+00
  5.8896E+00    0.0000E+00    8.1064E+00
  5.2354E+00    0.0000E+00    8.5435E+00
  4.5490E+00    0.0000E+00    8.9279E+00
  3.8345E+00    0.0000E+00    9.2573E+00
  9.9718E+00    9.8210E-01   -0.0000E+00
  9.8275E+00    1.9548E+00   -0.0000E+00
  9.5885E+00    2.9087E+00   -0.0000E+00
  9.2573E+00    3.8345E+00   -0.0000E+00
  8.8369E+00    4.7234E+00   -0.0000E+00
  8.3313E+00    5.5668E+00   -0.0000E+00
  7.7456E+00    6.3566E+00   -0.0000E+00
  7.0852E+00    7.0852E+00   -0.0000E+00
  6.3566E+00    7.7456E+00   -0.0000E+00
  5.5668E+00    8.3313E+00   -0.0000E+00
  4.7234E+00    8.8369E+00   -0.0000E+00
  3.8345E+00    9.2573E+00   -0.0000E+00
  2.9087E+00    9.5885E+00   -0.0000E+00
  1.9548E+00    9.8275E+00   -0.0000E+00
  9.8210E-01    9.9718E+00   -0.0000E+00
  0.0000E+00    1.0020E+01   -0.0000E+00
  9.9319E+00    9.7820E-01   -0.0000E+00
  9.7882E+00    1.9470E+00   -0.0000E+00
  9.5503E+00    2.8970E+00   -0.0000E+00
  9.2203E+00    3.8192E+00   -0.0000E+00
  8.8016E+00    4.7045E+00   -0.0000E+00
  8.2981E+00    5.5446E+00   -0.0000E+00
  7.7146E+00    6.3312E+00   -0.0000E+00
  7.0569E+00    7.0569E+00   -0.0000E+00
  6.3312E+00    7.7146E+00   -0.0000E+00
  5.5446E+00    8.2981E+00   -0.0000E+00
  4.7045E+00    8.8016E+00   -0.0000E+00
  3.8192E+00    9.2203E+00   -0.0000E+00
  2.8970E+00    9.5503E+00   -0.0000E+00
  1.9470E+00    9.7882E+00   -0.0000E+00
  9.7820E-01    9.9319E+00   -0.0000E+00
 -0.0000E+00    9.9800E+00   -0.0000E+00
  9.9013E+00    9.7520E-01    7.8300E-01
  9.7581E+00    1.9410E+00    7.8300E-01
  9.5208E+00    2.8881E+00    7.8300E-01
  9.1919E+00    3.8074E+00    7.8300E-01
  8.7744E+00    4.6900E+00    7.8300E-01
  8.2725E+00    5.5275E+00    7.8300E-01
  7.6909E+00    6.3117E+00    7.8300E-01
  7.0352E+00    7.0352E+00    7.8300E-01
  6.3117E+00    7.6909E+00    7.8300E-01
  5.5275E+00    8.2725E+00    7.8300E-01
  4.6900E+00    8.7744E+00    7.8300E-01
  3.8074E+00    9.1919E+00    7.8300E-01
  2.8881E+00    9.5208E+00    7.8300E-01
  1.9410E+00    9.7581E+00    7.8300E-01
  9.7520E-01    9.9013E+00    7.8300E-01
  0.0000E+00    9.9492E+00    7.8300E-01
  9.8097E+00    9.6620E-01    1.5612E+00
  9.6677E+00    1.9230E+00    1.5612E+00
  9.4327E+00    2.8614E+00    1.5612E+00
  9.1068E+00    3.7722E+00    1.5612E+00
  8.6932E+00    4.6466E+00    1.5612E+00
  8.1959E+00    5.4763E+00    1.5612E+00
  7.6197E+00    6.2533E+00    1.5612E+00
  6.9700E+00    6.9700E+00    1.5612E+00
  6.2533E+00    7.6197E+00    1.5612E+00
  5.4763E+00    8.1959E+00    1.5612E+00
  4.6466E+00    8.6932E+00    1.5612E+00
  3.7722E+00    9.1068E+00    1.5612E+00
  2.8614E+00    9.4327E+00    1.5612E+00
  1.9230E+00    9.6677E+00    1.5612E+00
  9.6620E-01    9.8097E+00    1.5612E+00
 -0.0000E+00    9.8571E+00    1.5612E+00
  9.6575E+00    9.5120E-01    2.3298E+00
  9.5178E+00    1.8932E+00    2.3298E+00
  9.2864E+00    2.8170E+00    2.3298E+00
  8.9656E+00    3.7137E+00    2.3298E+00
  8.5584E+00    4.5746E+00    2.3298E+00
  8.0688E+00    5.3914E+00    2.3298E+00
  7.5015E+00    6.1563E+00    2.3298E+00
  6.8619E+00    6.8619E+00    2.3298E+00
  6.1563E+00    7.5015E+00    2.3298E+00
  5.3914E+00    8.0688E+00    2.3298E+00
  4.5746E+00    8.5584E+00    2.3298E+00
  3.7137E+00    8.9656E+00    2.3298E+00
  2.8170E+00    9.2864E+00    2.3298E+00
  1.8932E+00    9.5178E+00    2.3298E+00
  9.5120E-01    9.6575E+00    2.3298E+00
  0.0000E+00    9.7043E+00    2.3298E+00
  9.4458E+00    9.3030E-01    3.0840E+00
  9.3092E+00    1.8517E+00    3.0840E+00
  9.0828E+00    2.7552E+00    3.0840E+00
  8.7690E+00    3.6323E+00    3.0840E+00
  8.3708E+00    4.4743E+00    3.0840E+00
  7.8919E+00    5.2732E+00    3.0840E+00
  7.3371E+00    6.0214E+00    3.0840E+00
  6.7115E+00    6.7115E+00    3.0840E+00
  6.0214E+00    7.3371E+00    3.0840E+00
  5.2732E+00    7.8919E+00    3.0840E+00
  4.4743E+00    8.3708E+00    3.0840E+00
  3.6323E+00    8.7690E+00    3.0840E+00
  2.7552E+00    9.0828E+00    3.0840E+00
  1.8517E+00    9.3092E+00    3.0840E+00
  9.3030E-01    9.4458E+00    3.0840E+00
  0.0000E+00    9.4915E+00    3.0840E+00
  9.1759E+00    9.0370E-01    3.8192E+00
  9.0432E+00    1.7988E+00    3.8192E+00
  8.8233E+00    2.6765E+00    3.8192E+00
  8.5185E+00    3.5285E+00    3.8192E+00
  8.1316E+00    4.3464E+00    3.8192E+00
  7.6664E+00    5.1225E+00    3.8192E+00
  7.1274E+00    5.8493E+00    3.8192E+00
  6.5197E+00    6.5197E+00    3.8192E+00
  5.8493E+00    7.1274E+00    3.8192E+00
  5.1225E+00    7.6664E+00    3.8192E+00
  4.3464E+00    8.1316E+00    3.8192E+00
  3.5285E+00    8.5185E+00    3.8192E+00
  2.6765E+00    8.8233E+00    3.8192E+00
  1.7988E+00    9.0432E+00    3.8192E+00
  9.0370E-01    9.1759E+00    3.8192E+00
 -0.0000E+00    9.2203E+00    3.8192E+00
  8.8494E+00    8.7160E-01    4.5308E+00
  8.7214E+00    1.7348E+00    4.5308E+00
  8.5093E+00    2.5813E+00    4.5308E+00
  8.2154E+00    3.4029E+00    4.5308E+00
  7.8423E+00    4.1918E+00    4.5308E+00
  7.3936E+00    4.9403E+00    4.5308E+00
  6.8738E+00    5.6412E+00    4.5308E+00
  6.2878E+00    6.2878E+00    4.5308E+00
  5.6412E+00    6.8738E+00    4.5308E+00
  4.9403E+00    7.3936E+00    4.5308E+00
  4.1918E+00    7.8423E+00    4.5308E+00
  3.4029E+00    8.2154E+00    4.5308E+00
  2.5813E+00    8.5093E+00    4.5308E+00
  1.7348E+00    8.7214E+00    4.5308E+00
  8.7160E-01    8.8494E+00    4.5308E+00
  0.0000E+00    8.8922E+00    4.5308E+00
  8.4684E+00    8.3410E-01    5.2145E+00
  8.3458E+00    1.6601E+00    5.2145E+00
  8.1429E+00    2.4701E+00    5.2145E+00
  7.8616E+00    3.2564E+00    5.2145E+00
  7.5046E+00    4.0113E+00    5.2145E+00
  7.0753E+00    4.7275E+00    5.2145E+00
  6.5778E+00    5.3983E+00    5.2145E+00
  6.0170E+00    6.0170E+00    5.2145E+00
  5.3983E+00    6.5778E+00    5.2145E+00
  4.7275E+00    7.0753E+00    5.2145E+00
  4.0113E+00    7.5046E+00    5.2145E+00
  3.2564E+00    7.8616E+00    5.2145E+00
  2.4701E+00    8.1429E+00    5.2145E+00
  1.6601E+00    8.3458E+00    5.2145E+00
  8.3410E-01    8.4684E+00    5.2145E+00
  0.0000E+00    8.5093E+00    5.2145E+00
  8.0351E+00    7.9140E-01    5.8661E+00
  7.9189E+00    1.5752E+00    5.8661E+00
  7.7263E+00    2.3438E+00    5.8661E+00
  7.4594E+00    3.0898E+00    5.8661E+00
  7.1206E+00    3.8061E+00    5.8661E+00
  6.7133E+00    4.4857E+00    5.8661E+00
  6.2413E+00    5.1221E+00    5.8661E+00
  5.7092E+00    5.7092E+00    5.8661E+00
  5.1221E+00    6.2413E+00    5.8661E+00
  4.4857E+00    6.7133E+00    5.8661E+00
  3.8061E+00    7.1206E+00    5.8661E+00
  3.0898E+00    7.4594E+00    5.8661E+00
  2.3438E+00    7.7263E+00    5.8661E+00
  1.5752E+00    7.9189E+00    5.8661E+00
  7.9140E-01    8.0351E+00    5.8661E+00
 -0.0000E+00    8.0740E+00    5.8661E+00
  7.5523E+00    7.4380E-01    6.4815E+00
  7.4430E+00    1.4805E+00    6.4815E+00
  7.2621E+00    2.2029E+00    6.4815E+00
  7.0112E+00    2.9041E+00    6.4815E+00
  6.6928E+00    3.5774E+00    6.4815E+00
  6.3099E+00    4.2161E+00    6.4815E+00
  5.8663E+00    4.8143E+00    6.4815E+00
  5.3661E+00    5.3661E+00    6.4815E+00
  4.8143E+00    5.8663E+00    6.4815E+00
  4.2161E+00    6.3099E+00    6.4815E+00
  3.5774E+00    6.6928E+00    6.4815E+00
  2.9041E+00    7.0112E+00    6.4815E+00
  2.2029E+00    7.2621E+00    6.4815E+00
  1.4805E+00    7.4430E+00    6.4815E+00
  7.4380E-01    7.5523E+00    6.4815E+00
  0.0000E+00    7.5889E+00    6.4815E+00
  7.0229E+00    6.9170E-01    7.0569E+00
  6.9213E+00    1.3767E+00    7.0569E+00
  6.7531E+00    2.0485E+00    7.0569E+00
  6.5197E+00    2.7006E+00    7.0569E+00
  6.2237E+00    3.3266E+00    7.0569E+00
  5.8676E+00    3.9206E+00    7.0569E+00
  5.4551E+00    4.4769E+00    7.0569E+00
  4.9900E+00    4.9900E+00    7.0569E+00
  4.4769E+00    5.4551E+00    7.0569E+00
  3.9206E+00    5.8676E+00    7.0569E+00
  3.3266E+00    6.2237E+00    7.0569E+00
  2.7006E+00    6.5197E+00    7.0569E+00
  2.0485E+00    6.7531E+00    7.0569E+00
  1.3767E+00    6.9213E+00    7.0569E+00
  6.9170E-01    7.0229E+00    7.0569E+00
  0.0000E+00    7.0569E+00    7.0569E+00
  6.4503E+00    6.3530E-01    7.5889E+00
  6.3570E+00    1.2645E+00    7.5889E+00
  6.2024E+00    1.8815E+00    7.5889E+00
  5.9881E+00    2.4804E+00    7.5889E+00
  5.7162E+00    3.0554E+00    7.5889E+00
  5.3892E+00    3.6009E+00    7.5889E+00
  5.0103E+00    4.1118E+00    7.5889E+00
  4.5831E+00    4.5831E+00    7.5889E+00
  4.1118E+00    5.0103E+00    7.5889E+00
[...]
POINT_DATA           578  
VECTORS deplacement   float64  
  2.5800E+00    0.0000E+00    0.0000E+00
  2.5860E+00    0.0000E+00   -2.0640E-02
  2.9250E-02    0.0000E+00   -1.7790E+00
  2.6740E-02    0.0000E+00   -1.7780E+00
  2.2040E+00    0.0000E+00   -1.3650E-01
  1.8640E+00    0.0000E+00   -2.5960E-01
  1.5640E+00    0.0000E+00   -3.8810E-01
  1.2990E+00    0.0000E+00   -5.1970E-01
  1.0680E+00    0.0000E+00   -6.5290E-01
  8.6670E-01    0.0000E+00   -7.8570E-01
  6.9340E-01    0.0000E+00   -9.1660E-01
  5.4560E-01    0.0000E+00   -1.0440E+00
  4.2100E-01    0.0000E+00   -1.1660E+00
  3.1750E-01    0.0000E+00   -1.2820E+00
  2.3310E-01    0.0000E+00   -1.3910E+00
  1.6580E-01    0.0000E+00   -1.4900E+00
  1.1360E-01    0.0000E+00   -1.5800E+00
  7.4710E-02    0.0000E+00   -1.6590E+00
  4.7380E-02    0.0000E+00   -1.7250E+00
  2.1980E+00    0.0000E+00   -1.1820E-01
  1.8580E+00    0.0000E+00   -2.4330E-01
  1.5570E+00    0.0000E+00   -3.7370E-01
  1.2920E+00    0.0000E+00   -5.0710E-01
  1.0610E+00    0.0000E+00   -6.4190E-01
  8.5990E-01    0.0000E+00   -7.7620E-01
  6.8680E-01    0.0000E+00   -9.0840E-01
  5.3920E-01    0.0000E+00   -1.0370E+00
  4.1490E-01    0.0000E+00   -1.1600E+00
  3.1180E-01    0.0000E+00   -1.2770E+00
  2.2780E-01    0.0000E+00   -1.3870E+00
  1.6100E-01    0.0000E+00   -1.4870E+00
  1.0930E-01    0.0000E+00   -1.5780E+00
  7.0980E-02    0.0000E+00   -1.6570E+00
  4.4350E-02    0.0000E+00   -1.7240E+00
  2.4900E+00   -7.5750E-03   -8.4710E-02
  2.2670E+00   -8.8380E-02   -2.9250E-01
  1.9830E+00   -2.5200E-01   -5.6260E-01
  1.6750E+00   -4.9020E-01   -8.6020E-01
  1.3690E+00   -7.8650E-01   -1.1630E+00
  1.0820E+00   -1.1250E+00   -1.4560E+00
  8.2510E-01   -1.4880E+00   -1.7310E+00
  6.0290E-01   -1.8610E+00   -1.9810E+00
  4.1870E-01   -2.2300E+00   -2.2030E+00
  2.7250E-01   -2.5820E+00   -2.3940E+00
  1.6250E-01   -2.9050E+00   -2.5530E+00
  8.5610E-02   -3.1900E+00   -2.6790E+00
  3.6910E-02   -3.4280E+00   -2.7720E+00
  1.0960E-02   -3.6110E+00   -2.8330E+00
  5.5810E-04   -3.7370E+00   -2.8600E+00
  0.0000E+00   -3.7850E+00   -2.8650E+00
  2.4960E+00   -1.6650E-02   -1.0260E-01
  2.2750E+00   -1.0150E-01   -3.0530E-01
  1.9920E+00   -2.6670E-01   -5.6990E-01
  1.6850E+00   -5.0460E-01   -8.6230E-01
  1.3800E+00   -7.9970E-01   -1.1600E+00
  1.0950E+00   -1.1360E+00   -1.4490E+00
  8.3760E-01   -1.4970E+00   -1.7210E+00
  6.1540E-01   -1.8670E+00   -1.9680E+00
  4.3080E-01   -2.2330E+00   -2.1870E+00
  2.8380E-01   -2.5820E+00   -2.3760E+00
  1.7290E-01   -2.9030E+00   -2.5320E+00
  9.4590E-02   -3.1860E+00   -2.6570E+00
  4.4280E-02   -3.4220E+00   -2.7480E+00
  1.6360E-02   -3.6030E+00   -2.8080E+00
  4.2780E-03   -3.7270E+00   -2.8340E+00
  0.0000E+00   -3.7750E+00   -2.8380E+00
  2.1400E+00   -1.0860E-02   -2.0270E-01
  1.9720E+00   -7.0330E-02   -3.7830E-01
  1.7430E+00   -1.9640E-01   -6.2220E-01
  1.4860E+00   -3.8720E-01   -9.0230E-01
  1.2250E+00   -6.3290E-01   -1.1960E+00
  9.7500E-01   -9.1980E-01   -1.4880E+00
  7.4760E-01   -1.2340E+00   -1.7670E+00
  5.4930E-01   -1.5600E+00   -2.0260E+00
  3.8340E-01   -1.8860E+00   -2.2590E+00
  2.5090E-01   -2.1990E+00   -2.4630E+00
  1.5070E-01   -2.4880E+00   -2.6360E+00
  8.0250E-02   -2.7430E+00   -2.7760E+00
  3.5470E-02   -2.9550E+00   -2.8820E+00
  1.1340E-02   -3.1160E+00   -2.9550E+00
  1.7800E-03   -3.2200E+00   -2.9960E+00
  0.0000E+00   -3.2560E+00   -3.0090E+00
  1.8180E+00   -7.5430E-03   -3.1460E-01
  1.6890E+00   -4.9980E-02   -4.6640E-01
  1.5070E+00   -1.4530E-01   -6.8680E-01
  1.2950E+00   -2.9610E-01   -9.4880E-01
  1.0750E+00   -4.9680E-01   -1.2310E+00
  8.6090E-01   -7.3700E-01   -1.5180E+00
  6.6320E-01   -1.0050E+00   -1.7970E+00
  4.8900E-01   -1.2870E+00   -2.0600E+00
  3.4200E-01   -1.5720E+00   -2.3000E+00
  2.2400E-01   -1.8470E+00   -2.5130E+00
  1.3460E-01   -2.1030E+00   -2.6950E+00
  7.1510E-02   -2.3280E+00   -2.8460E+00
  3.1520E-02   -2.5140E+00   -2.9620E+00
  1.0080E-02   -2.6550E+00   -3.0450E+00
  1.6470E-03   -2.7420E+00   -3.0940E+00
  0.0000E+00   -2.7720E+00   -3.1110E+00
  1.5280E+00   -5.5780E-03   -4.3470E-01
  1.4300E+00   -3.6740E-02   -5.6620E-01
  1.2850E+00   -1.0940E-01   -7.6310E-01
  1.1120E+00   -2.2820E-01   -1.0040E+00
  9.2940E-01   -3.9070E-01   -1.2690E+00
  7.4850E-01   -5.8950E-01   -1.5430E+00
  5.7940E-01   -8.1460E-01   -1.8150E+00
  4.2890E-01   -1.0550E+00   -2.0740E+00
  3.0100E-01   -1.3000E+00   -2.3130E+00
  1.9770E-01   -1.5390E+00   -2.5280E+00
  1.1900E-01   -1.7600E+00   -2.7140E+00
  6.3490E-02   -1.9570E+00   -2.8690E+00
  2.8220E-02   -2.1190E+00   -2.9910E+00
  9.2360E-03   -2.2400E+00   -3.0780E+00
  1.6710E-03   -2.3160E+00   -3.1310E+00
  0.0000E+00   -2.3410E+00   -3.1480E+00
  1.2720E+00   -4.2180E-03   -5.5960E-01
  1.1960E+00   -2.7480E-02   -6.7360E-01
  1.0810E+00   -8.3090E-02   -8.4800E-01
  9.4200E-01   -1.7650E-01   -1.0660E+00
  7.9160E-01   -3.0710E-01   -1.3100E+00
  6.4080E-01   -4.6990E-01   -1.5670E+00
  4.9820E-01   -6.5700E-01   -1.8250E+00
  3.7000E-01   -8.5930E-01   -2.0750E+00
  2.6040E-01   -1.0670E+00   -2.3070E+00
  1.7140E-01   -1.2710E+00   -2.5180E+00
  1.0330E-01   -1.4620E+00   -2.7020E+00
  5.5170E-02   -1.6310E+00   -2.8570E+00
  2.4540E-02   -1.7710E+00   -2.9790E+00
  8.0300E-03   -1.8750E+00   -3.0670E+00
  1.4570E-03   -1.9400E+00   -3.1200E+00
  0.0000E+00   -1.9620E+00   -3.1380E+00
  1.0470E+00   -3.2540E-03   -6.8700E-01
  9.8790E-01   -2.0790E-02   -7.8570E-01
  8.9770E-01   -6.3360E-02   -9.3890E-01
  7.8650E-01   -1.3640E-01   -1.1330E+00
  6.6440E-01   -2.4030E-01   -1.3550E+00
  5.4040E-01   -3.7200E-01   -1.5920E+00
  4.2190E-01   -5.2550E-01   -1.8320E+00
  3.1450E-01   -6.9330E-01   -2.0670E+00
  2.2190E-01   -8.6730E-01   -2.2880E+00
  1.4630E-01   -1.0390E+00   -2.4900E+00
  8.8350E-02   -1.2000E+00   -2.6680E+00
  4.7190E-02   -1.3440E+00   -2.8180E+00
  2.0980E-02   -1.4630E+00   -2.9370E+00
  6.8460E-03   -1.5530E+00   -3.0230E+00
  1.2320E-03   -1.6080E+00   -3.0750E+00
  0.0000E+00   -1.6270E+00   -3.0930E+00
  8.5080E-01   -2.5430E-03   -8.1500E-01
  8.0500E-01   -1.5850E-02   -9.0000E-01
  7.3460E-01   -4.8420E-02   -1.0330E+00
  6.4670E-01   -1.0510E-01   -1.2050E+00
  5.4890E-01   -1.8700E-01   -1.4030E+00
  4.4850E-01   -2.9210E-01   -1.6170E+00
  3.5160E-01   -4.1620E-01   -1.8370E+00
  2.6300E-01   -5.5320E-01   -2.0540E+00
  1.8620E-01   -6.9640E-01   -2.2600E+00
  1.2310E-01   -8.3880E-01   -2.4500E+00
  7.4470E-02   -9.7330E-01   -2.6180E+00
  3.9860E-02   -1.0930E+00   -2.7600E+00
  1.7760E-02   -1.1930E+00   -2.8730E+00
  5.8270E-03   -1.2680E+00   -2.9560E+00
  1.0630E-03   -1.3150E+00   -3.0060E+00
  0.0000E+00   -1.3310E+00   -3.0220E+00
  6.8130E-01   -2.0010E-03   -9.4150E-01
  6.4610E-01   -1.2110E-02   -1.0140E+00
  5.9160E-01   -3.6910E-02   -1.1290E+00
  5.2290E-01   -8.0500E-02   -1.2790E+00
  4.4570E-01   -1.4430E-01   -1.4540E+00
  3.6570E-01   -2.2710E-01   -1.6440E+00
  2.8780E-01   -3.2580E-01   -1.8420E+00
  2.1600E-01   -4.3580E-01   -2.0380E+00
  1.5340E-01   -5.5170E-01   -2.2260E+00
  1.0170E-01   -6.6760E-01   -2.4010E+00
  6.1720E-02   -7.7760E-01   -2.5560E+00
  3.3140E-02   -8.7620E-01   -2.6880E+00
  1.4830E-02   -9.5850E-01   -2.7930E+00
  4.9130E-03   -1.0200E+00   -2.8710E+00
  9.2230E-04   -1.0590E+00   -2.9170E+00
  0.0000E+00   -1.0720E+00   -2.9330E+00
  5.3640E-01   -1.5870E-03   -1.0650E+00
  5.0970E-01   -9.2210E-03   -1.1270E+00
  4.6800E-01   -2.7960E-02   -1.2250E+00
  4.1500E-01   -6.1140E-02   -1.3540E+00
  3.5510E-01   -1.1010E-01   -1.5050E+00
  2.9240E-01   -1.7430E-01   -1.6720E+00
  2.3090E-01   -2.5150E-01   -1.8460E+00
  1.7400E-01   -3.3820E-01   -2.0210E+00
  1.2390E-01   -4.3020E-01   -2.1900E+00
  8.2420E-02   -5.2270E-01   -2.3460E+00
  5.0160E-02   -6.1090E-01   -2.4870E+00
  2.7030E-02   -6.9030E-01   -2.6070E+00
  1.2160E-02   -7.5680E-01   -2.7030E+00
  4.0740E-03   -8.0680E-01   -2.7740E+00
  7.9320E-04   -8.3790E-01   -2.8170E+00
  0.0000E+00   -8.4850E-01   -2.8310E+00
  4.1410E-01   -1.2610E-03   -1.1840E+00
  3.9410E-01   -6.9900E-03   -1.2360E+00
  3.6270E-01   -2.0980E-02   -1.3190E+00
  3.2260E-01   -4.5880E-02   -1.4280E+00
  2.7690E-01   -8.2870E-02   -1.5570E+00
  2.2880E-01   -1.3170E-01   -1.7000E+00
  1.8130E-01   -1.9090E-01   -1.8510E+00
  1.3700E-01   -2.5780E-01   -2.0040E+00
  9.7890E-02   -3.2930E-01   -2.1510E+00
  6.5320E-02   -4.0150E-01   -2.2900E+00
  3.9880E-02   -4.7070E-01   -2.4140E+00
  2.1580E-02   -5.3310E-01   -2.5210E+00
  9.7740E-03   -5.8560E-01   -2.6070E+00
  3.3240E-03   -6.2510E-01   -2.6700E+00
  6.7520E-04   -6.4980E-01   -2.7080E+00
  0.0000E+00   -6.5810E-01   -2.7210E+00
  3.1250E-01   -1.0020E-03   -1.2970E+00
  2.9770E-01   -5.2530E-03   -1.3400E+00
  2.7460E-01   -1.5550E-02   -1.4080E+00
  2.4480E-01   -3.3910E-02   -1.4990E+00
  2.1070E-01   -6.1290E-02   -1.6080E+00
  1.7460E-01   -9.7670E-02   -1.7290E+00
  1.3870E-01   -1.4200E-01   -1.8570E+00
  1.0520E-01   -1.9240E-01   -1.9870E+00
  7.5400E-02   -2.4650E-01   -2.1130E+00
  5.0480E-02   -3.0150E-01   -2.2330E+00
  3.0940E-02   -3.5430E-01   -2.3400E+00
  1.6830E-02   -4.0220E-01   -2.4330E+00
  7.6870E-03   -4.4250E-01   -2.5080E+00
  2.6640E-03   -4.7300E-01   -2.5630E+00
  5.6990E-04   -4.9200E-01   -2.5960E+00
  0.0000E+00   -4.9840E-01   -2.6080E+00
  2.2950E-01   -7.9450E-04   -1.4020E+00
  2.1890E-01   -3.8980E-03   -1.4370E+00
  2.0210E-01   -1.1330E-02   -1.4930E+00
  1.8060E-01   -2.4560E-02   -1.5680E+00
  1.5580E-01   -4.4360E-02   -1.6570E+00
  1.2940E-01   -7.0750E-02   -1.7560E+00
  1.0310E-01   -1.0310E-01   -1.8630E+00
  7.8410E-02   -1.4000E-01   -1.9710E+00
  5.6380E-02   -1.7980E-01   -2.0770E+00
  3.7880E-02   -2.2030E-01   -2.1770E+00
  2.3320E-02   -2.5950E-01   -2.2680E+00
  1.2770E-02   -2.9510E-01   -2.3460E+00
  5.8960E-03   -3.2510E-01   -2.4090E+00
  2.0900E-03   -3.4780E-01   -2.4560E+00
  4.7630E-04   -3.6200E-01   -2.4850E+00
  0.0000E+00   -3.6680E-01   -2.4940E+00
  1.6330E-01   -6.2910E-04   -1.5000E+00
  1.5580E-01   -2.8580E-03   -1.5270E+00
  1.4410E-01   -8.0950E-03   -1.5720E+00
  1.2890E-01   -1.7380E-02   -1.6310E+00
  1.1140E-01   -3.1290E-02   -1.7020E+00
  9.2780E-02   -4.9860E-02   -1.7830E+00
  7.4130E-02   -7.2670E-02   -1.8680E+00
  5.6510E-02   -9.8820E-02   -1.9560E+00
  4.0770E-02   -1.2710E-01   -2.0420E+00
  2.7500E-02   -1.5600E-01   -2.1240E+00
  1.7020E-02   -1.8400E-01   -2.1980E+00
  9.3940E-03   -2.0950E-01   -2.2630E+00
  4.4060E-03   -2.3100E-01   -2.3150E+00
  1.6140E-03   -2.4730E-01   -2.3530E+00
  3.9750E-04   -2.5750E-01   -2.3770E+00
  0.0000E+00   -2.6100E-01   -2.3850E+00
  1.1190E-01   -5.0310E-04   -1.5870E+00
  1.0690E-01   -2.0780E-03   -1.6090E+00
  9.8910E-02   -5.6680E-03   -1.6430E+00
  8.8610E-02   -1.1980E-02   -1.6890E+00
  7.6700E-02   -2.1420E-02   -1.7450E+00
  6.3980E-02   -3.4030E-02   -1.8070E+00
  5.1230E-02   -4.9540E-02   -1.8740E+00
  3.9160E-02   -6.7340E-02   -1.9430E+00
  2.8350E-02   -8.6620E-02   -2.0110E+00
  1.9210E-02   -1.0640E-01   -2.0750E+00
  1.1980E-02   -1.2550E-01   -2.1340E+00
  6.6920E-03   -1.4300E-01   -2.1850E+00
  3.2080E-03   -1.5770E-01   -2.2260E+00
  1.2310E-03   -1.6890E-01   -2.2570E+00
  3.3410E-04   -1.7590E-01   -2.2760E+00
  0.0000E+00   -1.7830E-01   -2.2820E+00
  7.3590E-02   -4.0280E-04   -1.6640E+00
  7.0310E-02   -1.4930E-03   -1.6800E+00
  6.5120E-02   -3.8800E-03   -1.7060E+00
  5.8400E-02   -8.0210E-03   -1.7400E+00
  5.0620E-02   -1.4180E-02   -1.7820E+00
  4.2300E-02   -2.2400E-02   -1.8290E+00
  3.3940E-02   -3.2500E-02   -1.8790E+00
  2.6010E-02   -4.4110E-02   -1.9310E+00
  1.8890E-02   -5.6690E-02   -1.9830E+00
  1.2860E-02   -6.9590E-02   -2.0320E+00
  8.0790E-03   -8.2100E-02   -2.0760E+00
  4.5670E-03   -9.3520E-02   -2.1150E+00
  2.2370E-03   -1.0320E-01   -2.1470E+00
  8.9510E-04   -1.1050E-01   -2.1700E+00
  2.6280E-04   -1.1510E-01   -2.1850E+00
  0.0000E+00   -1.1670E-01   -2.1890E+00
  4.6680E-02   -2.9790E-04   -1.7290E+00
  4.4630E-02   -1.0190E-03   -1.7400E+00
  4.1380E-02   -2.5390E-03   -1.7590E+00
  3.7160E-02   -5.1440E-03   -1.7830E+00
  3.2260E-02   -9.0040E-03   -1.8130E+00
  2.7010E-02   -1.4150E-02   -1.8470E+00
  2.1720E-02   -2.0480E-02   -1.8840E+00
  1.6690E-02   -2.7760E-02   -1.9210E+00
  1.2160E-02   -3.5660E-02   -1.9590E+00
  8.3160E-03   -4.3780E-02   -1.9940E+00
  5.2530E-03   -5.1670E-02   -2.0270E+00
  2.9950E-03   -5.8870E-02   -2.0550E+00
  1.4900E-03   -6.4980E-02   -2.0780E+00
  6.1310E-04   -6.9620E-02   -2.0950E+00
  1.8860E-04   -7.2520E-02   -2.1060E+00
  0.0000E+00   -7.3510E-02   -2.1100E+00
  2.8840E-02   -2.9300E-04   -1.7820E+00
  2.7630E-02   -8.2680E-04   -1.7890E+00
  2.5710E-02   -1.8160E-03   -1.8020E+00
  2.3210E-02   -3.4270E-03   -1.8180E+00
  2.0300E-02   -5.7580E-03   -1.8390E+00
  1.7150E-02   -8.8310E-03   -1.8620E+00
  1.3970E-02   -1.2590E-02   -1.8870E+00
  1.0920E-02   -1.6900E-02   -1.9120E+00
  8.1470E-03   -2.1580E-02   -1.9380E+00
  5.7620E-03   -2.6380E-02   -1.9620E+00
  3.8260E-03   -3.1050E-02   -1.9840E+00
  2.3560E-03   -3.5320E-02   -2.0040E+00
  1.3240E-03   -3.8940E-02   -2.0190E+00
  6.5990E-04   -4.1690E-02   -2.0310E+00
  2.6070E-04   -4.3410E-02   -2.0380E+00
  0.0000E+00   -4.4000E-02   -2.0410E+00
  2.6330E-02    1.5700E-04   -1.7810E+00
  2.5120E-02    6.1370E-05   -1.7890E+00
  2.3220E-02   -5.1520E-04   -1.8010E+00
  2.0750E-02   -1.7450E-03   -1.8180E+00
  1.7890E-02   -3.7380E-03   -1.8380E+00
  1.4820E-02   -6.5170E-03   -1.8620E+00
  1.1730E-02   -1.0030E-02   -1.8870E+00
  8.8090E-03   -1.4140E-02   -1.9120E+00
  6.2020E-03   -1.8660E-02   -1.9380E+00
  4.0140E-03   -2.3340E-02   -1.9630E+00
  2.3100E-03   -2.7920E-02   -1.9850E+00
  1.1020E-03   -3.2120E-02   -2.0040E+00
  3.6000E-04   -3.5690E-02   -2.0200E+00
  4.7830E-06   -3.8410E-02   -2.0320E+00
 -7.0200E-05   -4.0120E-02   -2.0400E+00
  0.0000E+00   -4.0700E-02   -2.0420E+00
  2.1340E+00   -4.1910E-03   -1.8610E-01
  1.9640E+00   -5.9500E-02   -3.6580E-01
  1.7340E+00   -1.8360E-01   -6.1440E-01
  1.4770E+00   -3.7400E-01   -8.9920E-01
  1.2140E+00   -6.2050E-01   -1.1980E+00
  9.6420E-01   -9.0890E-01   -1.4940E+00
  7.3650E-01   -1.2250E+00   -1.7770E+00
  5.3820E-01   -1.5540E+00   -2.0390E+00
  3.7260E-01   -1.8820E+00   -2.2750E+00
  2.4080E-01   -2.1970E+00   -2.4810E+00
  1.4160E-01   -2.4880E+00   -2.6560E+00
  7.2370E-02   -2.7450E+00   -2.7970E+00
  2.9150E-02   -2.9590E+00   -2.9050E+00
  6.7380E-03   -3.1210E+00   -2.9800E+00
 -7.5870E-04   -3.2260E+00   -3.0220E+00
  0.0000E+00   -3.2630E+00   -3.0350E+00
  1.8110E+00   -2.4390E-03   -2.9950E-01
  1.6820E+00   -4.1130E-02   -4.5430E-01
  1.4990E+00   -1.3430E-01   -6.7850E-01
  1.2870E+00   -2.8430E-01   -9.4460E-01
  1.0660E+00   -4.8520E-01   -1.2310E+00
  8.5110E-01   -7.2640E-01   -1.5220E+00
  6.5320E-01   -9.9550E-01   -1.8050E+00
  4.7900E-01   -1.2800E+00   -2.0700E+00
  3.3240E-01   -1.5660E+00   -2.3130E+00
  2.1510E-01   -1.8440E+00   -2.5290E+00
  1.2650E-01   -2.1010E+00   -2.7130E+00
  6.4630E-02   -2.3270E+00   -2.8650E+00
  2.6070E-02   -2.5150E+00   -2.9840E+00
  6.2480E-03   -2.6570E+00   -3.0680E+00
 -3.3650E-04   -2.7450E+00   -3.1170E+00
  0.0000E+00   -2.7750E+00   -3.1340E+00
  1.5220E+00   -1.5390E-03   -4.2120E-01
  1.4220E+00   -2.9470E-02   -5.5500E-01
  1.2770E+00   -1.0000E-01   -7.5490E-01
  1.1040E+00   -2.1780E-01   -9.9890E-01
  9.2070E-01   -3.8010E-01   -1.2680E+00
  7.3950E-01   -5.7930E-01   -1.5460E+00
  5.7020E-01   -8.0540E-01   -1.8200E+00
  4.1980E-01   -1.0470E+00   -2.0820E+00
  2.9230E-01   -1.2940E+00   -2.3250E+00
  1.8960E-01   -1.5340E+00   -2.5420E+00
  1.1180E-01   -1.7570E+00   -2.7300E+00
  5.7400E-02   -1.9540E+00   -2.8860E+00
  2.3440E-02   -2.1180E+00   -3.0090E+00
  5.9270E-03   -2.2400E+00   -3.0980E+00
 -3.0310E-05   -2.3160E+00   -3.1510E+00
  0.0000E+00   -2.3420E+00   -3.1690E+00
  1.2650E+00   -9.3660E-04   -5.4760E-01
  1.1890E+00   -2.1440E-02   -6.6340E-01
  1.0740E+00   -7.5080E-02   -8.4030E-01
  9.3410E-01   -1.6730E-01   -1.0610E+00
  7.8340E-01   -2.9750E-01   -1.3080E+00
  6.3240E-01   -4.6030E-01   -1.5690E+00
  4.8970E-01   -6.4800E-01   -1.8300E+00
  3.6180E-01   -8.5130E-01   -2.0820E+00
  2.5250E-01   -1.0600E+00   -2.3170E+00
  1.6410E-01   -1.2650E+00   -2.5300E+00
  9.6870E-02   -1.4570E+00   -2.7160E+00
  4.9710E-02   -1.6270E+00   -2.8720E+00
  2.0270E-02   -1.7680E+00   -2.9950E+00
  5.0930E-03   -1.8730E+00   -3.0840E+00
 -4.1130E-05   -1.9390E+00   -3.1380E+00
  0.0000E+00   -1.9610E+00   -3.1560E+00
  1.0400E+00   -5.5720E-04   -6.7650E-01
  9.8080E-01   -1.5740E-02   -7.7650E-01
  8.9040E-01   -5.6500E-02   -9.3170E-01
  7.7900E-01   -1.2830E-01   -1.1290E+00
  6.5670E-01   -2.3160E-01   -1.3530E+00
  5.3260E-01   -3.6320E-01   -1.5920E+00
  4.1410E-01   -5.1690E-01   -1.8350E+00
  3.0690E-01   -6.8530E-01   -2.0730E+00
  2.1480E-01   -8.6010E-01   -2.2960E+00
  1.3980E-01   -1.0330E+00   -2.5000E+00
  8.2540E-02   -1.1950E+00   -2.6800E+00
  4.2310E-02   -1.3390E+00   -2.8310E+00
  1.7160E-02   -1.4590E+00   -2.9510E+00
  4.2380E-03   -1.5490E+00   -3.0390E+00
 -9.9560E-05   -1.6050E+00   -3.0910E+00
  0.0000E+00   -1.6240E+00   -3.1090E+00
  8.4400E-01   -2.9500E-04   -8.0580E-01
  7.9810E-01   -1.1590E-02   -8.9190E-01
  7.2750E-01   -4.2520E-02   -1.0270E+00
  6.3950E-01   -9.8000E-02   -1.2010E+00
  5.4160E-01   -1.7920E-01   -1.4010E+00
  4.4120E-01   -2.8400E-01   -1.6180E+00
  3.4440E-01   -4.0810E-01   -1.8400E+00
  2.5610E-01   -5.4550E-01   -2.0590E+00
  1.7970E-01   -6.8920E-01   -2.2670E+00
  1.1710E-01   -8.3210E-01   -2.4580E+00
  6.9230E-02   -9.6720E-01   -2.6280E+00
  3.5470E-02   -1.0880E+00   -2.7710E+00
  1.4350E-02   -1.1880E+00   -2.8860E+00
  3.4940E-03   -1.2640E+00   -2.9690E+00
 -1.2360E-04   -1.3110E+00   -3.0200E+00
  0.0000E+00   -1.3260E+00   -3.0370E+00
  6.7460E-01   -1.1510E-04   -9.3360E-01
  6.3940E-01   -8.4860E-03   -1.0070E+00
  5.8490E-01   -3.1830E-02   -1.1240E+00
  5.1610E-01   -7.4330E-02   -1.2750E+00
  4.3890E-01   -1.3730E-01   -1.4520E+00
  3.5890E-01   -2.1970E-01   -1.6440E+00
  2.8120E-01   -3.1830E-01   -1.8440E+00
  2.0970E-01   -4.2840E-01   -2.0420E+00
  1.4750E-01   -5.4460E-01   -2.2320E+00
  9.6340E-02   -6.6090E-01   -2.4080E+00
  5.6990E-02   -7.7130E-01   -2.5650E+00
  2.9200E-02   -8.7040E-01   -2.6980E+00
  1.1770E-02   -9.5300E-01   -2.8040E+00
  2.8240E-03   -1.0150E+00   -2.8820E+00
 -1.3640E-04   -1.0540E+00   -2.9300E+00
  0.0000E+00   -1.0670E+00   -2.9460E+00
  5.3000E-01    1.0240E-05   -1.0580E+00
  5.0330E-01   -6.1380E-03   -1.1210E+00
  4.6150E-01   -2.3590E-02   -1.2200E+00
  4.0860E-01   -5.5740E-02   -1.3500E+00
  3.4870E-01   -1.0400E-01   -1.5030E+00
  2.8610E-01   -1.6770E-01   -1.6720E+00
  2.2480E-01   -2.4460E-01   -1.8480E+00
  1.6820E-01   -3.3130E-01   -2.0240E+00
  1.1850E-01   -4.2330E-01   -2.1940E+00
  7.7540E-02   -5.1610E-01   -2.3530E+00
  4.5900E-02   -6.0460E-01   -2.4940E+00
  2.3480E-02   -6.8420E-01   -2.6150E+00
  9.4240E-03   -7.5090E-01   -2.7130E+00
  2.2080E-03   -8.0120E-01   -2.7840E+00
 -1.5220E-04   -8.3240E-01   -2.8270E+00
  0.0000E+00   -8.4300E-01   -2.8420E+00
  4.0800E-01    9.9670E-05   -1.1780E+00
  3.8800E-01   -4.3470E-03   -1.2310E+00
  3.5660E-01   -1.7210E-02   -1.3140E+00
  3.1650E-01   -4.1170E-02   -1.4250E+00
  2.7090E-01   -7.7430E-02   -1.5550E+00
  2.2290E-01   -1.2570E-01   -1.7000E+00
  1.7570E-01   -1.8460E-01   -1.8520E+00
  1.3170E-01   -2.5140E-01   -2.0060E+00