# vtk DataFile Version 3.0 
vtk output 
ASCII 
DATASET UNSTRUCTURED_GRID 
POINTS           578 float
  1.0020E+01    0.0000E+00   -0.0000E+00
  9.9800E+00    0.0000E+00   -0.0000E+00
  3.0840E+00    0.0000E+00    9.4915E+00
  3.0964E+00    0.0000E+00    9.5296E+00
  9.9492E+00    0.0000E+00    7.8300E-01
  9.8571E+00    0.0000E+00    1.5612E+00
  9.7043E+00    0.0000E+00    2.3298E+00
  9.4915E+00    0.0000E+00    3.0840E+00
  9.2203E+00    0.0000E+00    3.8192E+00
  8.8922E+00    0.0000E+00    4.5308E+00
  8.5093E+00    0.0000E+00    5.2145E+00
  8.0740E+00    0.0000E+00    5.8661E+00
  7.5889E+00    0.0000E+00    6.4815E+00
  7.0569E+00    0.0000E+00    7.0569E+00
  6.4815E+00    0.0000E+00    7.5889E+00
  5.8661E+00    0.0000E+00    8.0740E+00
  5.2145E+00    0.0000E+00    8.5093E+00
  4.5308E+00    0.0000E+00    8.8922E+00
  3.8192E+00    0.0000E+00    9.2203E+00
  9.9891E+00    0.0000E+00    7.8620E-01
  9.8966E+00    0.0000E+00    1.5675E+00
  9.7431E+00    0.0000E+00    2.3391E+00
  9.5296E+00    0.0000E+00    3.0964E+00
  9.2573E+00    0.0000E+00    3.8345E+00
  8.9279E+00    0.0000E+00    4.5490E+00
  8.5435E+00    0.0000E+00    5.2354E+00
  8.1064E+00    0.0000E+00    5.8896E+00
  7.6193E+00    0.0000E+00    6.5075E+00
  7.0852E+00    0.0000E+00    7.0852E+00
  6.5075E+00    0.0000E+00    7.6193E+00
  5.8896E+00    0.0000E+00    8.1064E+00
  5.2354E+00    0.0000E+00    8.5435E+00
  4.5490E+00    0.0000E+00    8.9279E+00
  3.8345E+00    0.0000E+00    9.2573E+00
  9.9718E+00    9.8210E-01   -0.0000E+00
  9.8275E+00    1.9548E+00   -0.0000E+00
  9.5885E+00    2.9087E+00   -0.0000E+00
  9.2573E+00    3.8345E+00   -0.0000E+00
  8.8369E+00    4.7234E+00   -0.0000E+00
  8.3313E+00    5.5668E+00   -0.0000E+00
  7.7456E+00    6.3566E+00   -0.0000E+00
  7.0852E+00    7.0852E+00   -0.0000E+00
  6.3566E+00    7.7456E+00   -0.0000E+00
  5.5668E+00    8.3313E+00   -0.0000E+00
  4.7234E+00    8.8369E+00   -0.0000E+00
  3.8345E+00    9.2573E+00   -0.0000E+00
  2.9087E+00    9.5885E+00   -0.0000E+00
  1.9548E+00    9.8275E+00   -0.0000E+00
  9.8210E-01    9.9718E+00   -0.0000E+00
  0.0000E+00    1.0020E+01   -0.0000E+00
  9.9319E+00    9.7820E-01   -0.0000E+00
  9.7882E+00    1.9470E+00   -0.0000E+00
  9.5503E+00    2.8970E+00   -0.0000E+00
  9.2203E+00    3.8192E+00   -0.0000E+00
  8.8016E+00    4.7045E+00   -0.0000E+00
  8.2981E+00    5.5446E+00   -0.0000E+00
  7.7146E+00    6.3312E+00   -0.0000E+00
  7.0569E+00    7.0569E+00   -0.0000E+00
  6.3312E+00    7.7146E+00   -0.0000E+00
  5.5446E+00    8.2981E+00   -0.0000E+00
  4.7045E+00    8.8016E+00   -0.0000E+00
  3.8192E+00    9.2203E+00   -0.0000E+00
  2.8970E+00    9.5503E+00   -0.0000E+00
  1.9470E+00    9.7882E+00   -0.0000E+00
  9.7820E-01    9.9319E+00   -0.0000E+00
 -0.0000E+00    9.9800E+00   -0.0000E+00
  9.9013E+00    9.7520E-01    7.8300E-01
  9.7581E+00    1.9410E+00    7.8300E-01
  9.5208E+00    2.8881E+00    7.8300E-01
  9.1919E+00    3.8074E+00    7.8300E-01
  8.7744E+00    4.6900E+00    7.8300E-01
  8.2725E+00    5.5275E+00    7.8300E-01
  7.6909E+00    6.3117E+00    7.8300E-01
  7.0352E+00    7.0352E+00    7.8300E-01
  6.3117E+00    7.6909E+00    7.8300E-01
  5.5275E+00    8.2725E+00    7.8300E-01
  4.6900E+00    8.7744E+00    7.8300E-01
  3.8074E+00    9.1919E+00    7.8300E-01
  2.8881E+00    9.5208E+00    7.8300E-01
  1.9410E+00    9.7581E+00    7.8300E-01
  9.7520E-01    9.9013E+00    7.8300E-01
  0.0000E+00    9.9492E+00    7.8300E-01
  9.8097E+00    9.6620E-01    1.5612E+00
  9.6677E+00    1.9230E+00    1.5612E+00
  9.4327E+00    2.8614E+00    1.5612E+00
  9.1068E+00    3.7722E+00    1.5612E+00
  8.6932E+00    4.6466E+00    1.5612E+00
  8.1959E+00    5.4763E+00    1.5612E+00
  7.6197E+00    6.2533E+00    1.5612E+00
  6.9700E+00    6.9700E+00    1.5612E+00
  6.2533E+00    7.6197E+00    1.5612E+00
  5.4763E+00    8.1959E+00    1.5612E+00
  4.6466E+00    8.6932E+00    1.5612E+00
  3.7722E+00    9.1068E+00    1.5612E+00
  2.8614E+00    9.4327E+00    1.5612E+00
  1.9230E+00    9.6677E+00    1.5612E+00
  9.6620E-01    9.8097E+00    1.5612E+00
 -0.0000E+00    9.8571E+00    1.5612E+00
  9.6575E+00    9.5120E-01    2.3298E+00
  9.5178E+00    1.8932E+00    2.3298E+00
  9.2864E+00    2.8170E+00    2.3298E+00
  8.9656E+00    3.7137E+00    2.3298E+00
  8.5584E+00    4.5746E+00    2.3298E+00
  8.0688E+00    5.3914E+00    2.3298E+00
  7.5015E+00    6.1563E+00    2.3298E+00
  6.8619E+00    6.8619E+00    2.3298E+00
  6.1563E+00    7.5015E+00    2.3298E+00
  5.3914E+00    8.0688E+00    2.3298E+00
  4.5746E+00    8.5584E+00    2.3298E+00
  3.7137E+00    8.9656E+00    2.3298E+00
  2.8170E+00    9.2864E+00    2.3298E+00
  1.8932E+00    9.5178E+00    2.3298E+00
  9.5120E-01    9.6575E+00    2.3298E+00
  0.0000E+00    9.7043E+00    2.3298E+00
  9.4458E+00    9.3030E-01    3.0840E+00
  9.3092E+00    1.8517E+00    3.0840E+00
  9.0828E+00    2.7552E+00    3.0840E+00
  8.7690E+00    3.6323E+00    3.0840E+00
  8.3708E+00    4.4743E+00    3.0840E+00
  7.8919E+00    5.2732E+00    3.0840E+00
  7.3371E+00    6.0214E+00    3.0840E+00
  6.7115E+00    6.7115E+00    3.0840E+00
  6.0214E+00    7.3371E+00    3.0840E+00
  5.2732E+00    7.8919E+00    3.0840E+00
  4.4743E+00    8.3708E+00    3.0840E+00
  3.6323E+00    8.7690E+00    3.0840E+00
  2.7552E+00    9.0828E+00    3.0840E+00
  1.8517E+00    9.3092E+00    3.0840E+00
  9.3030E-01    9.4458E+00    3.0840E+00
  0.0000E+00    9.4915E+00    3.0840E+00
  9.1759E+00    9.0370E-01    3.8192E+00
  9.0432E+00    1.7988E+00    3.8192E+00
  8.8233E+00    2.6765E+00    3.8192E+00
  8.5185E+00    3.5285E+00    3.8192E+00
  8.1316E+00    4.3464E+00    3.8192E+00
  7.6664E+00    5.1225E+00    3.8192E+00
  7.1274E+00    5.8493E+00    3.8192E+00
  6.5197E+00    6.5197E+00    3.8192E+00
  5.8493E+00    7.1274E+00    3.8192E+00
  5.1225E+00    7.6664E+00    3.8192E+00
  4.3464E+00    8.1316E+00    3.8192E+00
  3.5285E+00    8.5185E+00    3.8192E+00
  2.6765E+00    8.8233E+00    3.8192E+00
  1.7988E+00    9.0432E+00    3.8192E+00
  9.0370E-01    9.1759E+00    3.8192E+00
 -0.0000E+00    9.2203E+00    3.8192E+00
  8.8494E+00    8.7160E-01    4.5308E+00
  8.7214E+00    1.7348E+00    4.5308E+00
  8.5093E+00    2.5813E+00    4.5308E+00
  8.2154E+00    3.4029E+00    4.5308E+00
  7.8423E+00    4.1918E+00    4.5308E+00
  7.3936E+00    4.9403E+00    4.5308E+00
  6.8738E+00    5.6412E+00    4.5308E+00
  6.2878E+00    6.2878E+00    4.5308E+00
  5.6412E+00    6.8738E+00    4.5308E+00
  4.9403E+00    7.3936E+00    4.5308E+00
  4.1918E+00    7.8423E+00    4.5308E+00
  3.4029E+00    8.2154E+00    4.5308E+00
  2.5813E+00    8.5093E+00    4.5308E+00
  1.7348E+00    8.7214E+00    4.5308E+00
  8.7160E-01    8.8494E+00    4.5308E+00
  0.0000E+00    8.8922E+00    4.5308E+00
  8.4684E+00    8.3410E-01    5.2145E+00
  8.3458E+00    1.6601E+00    5.2145E+00
  8.1429E+00    2.4701E+00    5.2145E+00
  7.8616E+00    3.2564E+00    5.2145E+00
  7.5046E+00    4.0113E+00    5.2145E+00
  7.0753E+00    4.7275E+00    5.2145E+00
  6.5778E+00    5.3983E+00    5.2145E+00
  6.0170E+00    6.0170E+00    5.2145E+00
  5.3983E+00    6.5778E+00    5.2145E+00
  4.7275E+00    7.0753E+00    5.2145E+00
  4.0113E+00    7.5046E+00    5.2145E+00
  3.2564E+00    7.8616E+00    5.2145E+00
  2.4701E+00    8.1429E+00    5.2145E+00
  1.6601E+00    8.3458E+00    5.2145E+00
  8.3410E-01    8.4684E+00    5.2145E+00
  0.0000E+00    8.5093E+00    5.2145E+00
  8.0351E+00    7.9140E-01    5.8661E+00
  7.9189E+00    1.5752E+00    5.8661E+00
  7.7263E+00    2.3438E+00    5.8661E+00
  7.4594E+00    3.0898E+00    5.8661E+00
  7.1206E+00    3.8061E+00    5.8661E+00
  6.7133E+00    4.4857E+00    5.8661E+00
  6.2413E+00    5.1221E+00    5.8661E+00
  5.7092E+00    5.7092E+00    5.8661E+00
  5.1221E+00    6.2413E+00    5.8661E+00
  4.4857E+00    6.7133E+00    5.8661E+00
  3.8061E+00    7.1206E+00    5.8661E+00
  3.0898E+00    7.4594E+00    5.8661E+00
  2.3438E+00    7.7263E+00    5.8661E+00
  1.5752E+00    7.9189E+00    5.8661E+00
  7.9140E-01    8.0351E+00    5.8661E+00
 -0.0000E+00    8.0740E+00    5.8661E+00
  7.5523E+00    7.4380E-01    6.4815E+00
  7.4430E+00    1.4805E+00    6.4815E+00
  7.2621E+00    2.2029E+00    6.4815E+00
  7.0112E+00    2.9041E+00    6.4815E+00
  6.6928E+00    3.5774E+00    6.4815E+00
  6.3099E+00    4.2161E+00    6.4815E+00
  5.8663E+00    4.8143E+00    6.4815E+00
  5.3661E+00    5.3661E+00    6.4815E+00
  4.8143E+00    5.8663E+00    6.4815E+00
  4.2161E+00    6.3099E+00    6.4815E+00
  3.5774E+00    6.6928E+00    6.4815E+00
  2.9041E+00    7.0112E+00    6.4815E+00
  2.2029E+00    7.2621E+00    6.4815E+00
  1.4805E+00    7.4430E+00    6.4815E+00
  7.4380E-01    7.5523E+00    6.4815E+00
  0.0000E+00    7.5889E+00    6.4815E+00
  7.0229E+00    6.9170E-01    7.0569E+00
  6.9213E+00    1.3767E+00    7.0569E+00
  6.7531E+00    2.0485E+00    7.0569E+00
  6.5197E+00    2.7006E+00    7.0569E+00
  6.2237E+00    3.3266E+00    7.0569E+00
  5.8676E+00    3.9206E+00    7.0569E+00
  5.4551E+00    4.4769E+00    7.0569E+00
  4.9900E+00    4.9900E+00    7.0569E+00
  4.4769E+00    5.4551E+00    7.0569E+00
  3.9206E+00    5.8676E+00    7.0569E+00
  3.3266E+00    6.2237E+00    7.0569E+00
  2.7006E+00    6.5197E+00    7.0569E+00
  2.0485E+00    6.7531E+00    7.0569E+00
  1.3767E+00    6.9213E+00    7.0569E+00
  6.9170E-01    7.0229E+00    7.0569E+00
  0.0000E+00    7.0569E+00    7.0569E+00
  6.4503E+00    6.3530E-01    7.5889E+00
  6.3570E+00    1.2645E+00    7.5889E+00
  6.2024E+00    1.8815E+00    7.5889E+00
  5.9881E+00    2.4804E+00    7.5889E+00
  5.7162E+00    3.0554E+00    7.5889E+00
  5.3892E+00    3.6009E+00    7.5889E+00
  5.0103E+00    4.1118E+00    7.5889E+00
  4.5831E+00    4.5831E+00    7.5889E+00
  4.1118E+00    5.0103E+00    7.5889E+00
[...]
POINT_DATA           578  
VECTORS deplacement   float64  
  2.9830E+00    0.0000E+00    0.0000E+00
  2.9910E+00    0.0000E+00   -2.3580E-02
  3.4710E-02    0.0000E+00   -2.1970E+00
  3.1710E-02    0.0000E+00   -2.1970E+00
  2.5540E+00    0.0000E+00   -1.7620E-01
  2.1650E+00    0.0000E+00   -3.3490E-01
  1.8180E+00    0.0000E+00   -4.9830E-01
  1.5130E+00    0.0000E+00   -6.6360E-01
  1.2450E+00    0.0000E+00   -8.2930E-01
  1.0110E+00    0.0000E+00   -9.9330E-01
  8.0970E-01    0.0000E+00   -1.1540E+00
  6.3760E-01    0.0000E+00   -1.3090E+00
  4.9230E-01    0.0000E+00   -1.4580E+00
  3.7160E-01    0.0000E+00   -1.5990E+00
  2.7300E-01    0.0000E+00   -1.7300E+00
  1.9440E-01    0.0000E+00   -1.8500E+00
  1.3340E-01    0.0000E+00   -1.9580E+00
  8.7900E-02    0.0000E+00   -2.0530E+00
  5.5910E-02    0.0000E+00   -2.1330E+00
  2.5460E+00    0.0000E+00   -1.5520E-01
  2.1570E+00    0.0000E+00   -3.1620E-01
  1.8100E+00    0.0000E+00   -4.8180E-01
  1.5040E+00    0.0000E+00   -6.4900E-01
  1.2360E+00    0.0000E+00   -8.1650E-01
  1.0030E+00    0.0000E+00   -9.8220E-01
  8.0160E-01    0.0000E+00   -1.1440E+00
  6.2980E-01    0.0000E+00   -1.3010E+00
  4.8490E-01    0.0000E+00   -1.4520E+00
  3.6470E-01    0.0000E+00   -1.5940E+00
  2.6660E-01    0.0000E+00   -1.7260E+00
  1.8860E-01    0.0000E+00   -1.8470E+00
  1.2820E-01    0.0000E+00   -1.9560E+00
  8.3430E-02    0.0000E+00   -2.0510E+00
  5.2270E-02    0.0000E+00   -2.1310E+00
  2.8680E+00   -1.3260E-02   -1.1980E-01
  2.5910E+00   -1.3870E-01   -4.0220E-01
  2.2420E+00   -3.8050E-01   -7.5140E-01
  1.8750E+00   -7.1640E-01   -1.1190E+00
  1.5180E+00   -1.1180E+00   -1.4780E+00
  1.1890E+00   -1.5610E+00   -1.8140E+00
  8.9930E-01   -2.0230E+00   -2.1220E+00
  6.5230E-01   -2.4860E+00   -2.3950E+00
  4.4980E-01   -2.9350E+00   -2.6320E+00
  2.9090E-01   -3.3550E+00   -2.8330E+00
  1.7250E-01   -3.7360E+00   -2.9970E+00
  9.0460E-02   -4.0660E+00   -3.1250E+00
  3.8910E-02   -4.3380E+00   -3.2180E+00
  1.1670E-02   -4.5440E+00   -3.2770E+00
  7.5940E-04   -4.6810E+00   -3.3000E+00
  0.0000E+00   -4.7330E+00   -3.3020E+00
  2.8770E+00   -2.5340E-02   -1.3930E-01
  2.6010E+00   -1.5550E-01   -4.1440E-01
  2.2540E+00   -3.9840E-01   -7.5630E-01
  1.8880E+00   -7.3320E-01   -1.1170E+00
  1.5320E+00   -1.1320E+00   -1.4700E+00
  1.2040E+00   -1.5720E+00   -1.8030E+00
  9.1430E-01   -2.0300E+00   -2.1060E+00
  6.6690E-01   -2.4900E+00   -2.3760E+00
  4.6390E-01   -2.9350E+00   -2.6100E+00
  3.0390E-01   -3.3530E+00   -2.8090E+00
  1.8420E-01   -3.7300E+00   -2.9710E+00
  1.0050E-01   -4.0570E+00   -3.0970E+00
  4.7060E-02   -4.3270E+00   -3.1890E+00
  1.7550E-02   -4.5310E+00   -3.2470E+00
  4.7940E-03   -4.6660E+00   -3.2690E+00
  0.0000E+00   -4.7180E+00   -3.2700E+00
  2.4740E+00   -1.6050E-02   -2.6740E-01
  2.2650E+00   -1.0520E-01   -5.0370E-01
  1.9860E+00   -2.8850E-01   -8.2040E-01
  1.6780E+00   -5.5660E-01   -1.1710E+00
  1.3710E+00   -8.9060E-01   -1.5270E+00
  1.0820E+00   -1.2690E+00   -1.8710E+00
  8.2320E-01   -1.6730E+00   -2.1910E+00
  6.0040E-01   -2.0840E+00   -2.4820E+00
  4.1610E-01   -2.4870E+00   -2.7390E+00
  2.7050E-01   -2.8660E+00   -2.9600E+00
  1.6150E-01   -3.2120E+00   -3.1450E+00
  8.5430E-02   -3.5120E+00   -3.2930E+00
  3.7510E-02   -3.7590E+00   -3.4040E+00
  1.1900E-02   -3.9440E+00   -3.4790E+00
  1.8480E-03   -4.0610E+00   -3.5210E+00
  0.0000E+00   -4.1020E+00   -3.5330E+00
  2.1070E+00   -1.0770E-02   -4.0920E-01
  1.9490E+00   -7.2790E-02   -6.1120E-01
  1.7270E+00   -2.0940E-01   -8.9720E-01
  1.4730E+00   -4.2010E-01   -1.2280E+00
  1.2130E+00   -6.9320E-01   -1.5750E+00
  9.6430E-01   -1.0120E+00   -1.9190E+00
  7.3750E-01   -1.3590E+00   -2.2460E+00
  5.3990E-01   -1.7190E+00   -2.5480E+00
  3.7520E-01   -2.0750E+00   -2.8190E+00
  2.4430E-01   -2.4140E+00   -3.0570E+00
  1.4580E-01   -2.7230E+00   -3.2580E+00
  7.7020E-02   -2.9930E+00   -3.4210E+00
  3.3720E-02   -3.2150E+00   -3.5470E+00
  1.0670E-02   -3.3790E+00   -3.6360E+00
  1.7020E-03   -3.4810E+00   -3.6880E+00
  0.0000E+00   -3.5160E+00   -3.7060E+00
  1.7750E+00   -7.8480E-03   -5.6030E-01
  1.6540E+00   -5.2570E-02   -7.3350E-01
  1.4780E+00   -1.5540E-01   -9.8810E-01
  1.2720E+00   -3.2030E-01   -1.2920E+00
  1.0560E+00   -5.4080E-01   -1.6210E+00
  8.4480E-01   -8.0510E-01   -1.9540E+00
  6.4980E-01   -1.0990E+00   -2.2770E+00
  4.7800E-01   -1.4070E+00   -2.5800E+00
  3.3360E-01   -1.7160E+00   -2.8560E+00
  2.1790E-01   -2.0130E+00   -3.1010E+00
  1.3060E-01   -2.2860E+00   -3.3100E+00
  6.9380E-02   -2.5240E+00   -3.4830E+00
  3.0740E-02   -2.7190E+00   -3.6170E+00
  1.0040E-02   -2.8650E+00   -3.7140E+00
  1.8190E-03   -2.9540E+00   -3.7710E+00
  0.0000E+00   -2.9840E+00   -3.7900E+00
  1.4800E+00   -5.8280E-03   -7.1590E-01
  1.3870E+00   -3.8690E-02   -8.6470E-01
  1.2480E+00   -1.1650E-01   -1.0890E+00
  1.0820E+00   -2.4530E-01   -1.3650E+00
  9.0420E-01   -4.2210E-01   -1.6690E+00
  7.2770E-01   -6.3870E-01   -1.9830E+00
  5.6250E-01   -8.8360E-01   -2.2940E+00
  4.1560E-01   -1.1440E+00   -2.5890E+00
  2.9100E-01   -1.4090E+00   -2.8620E+00
  1.9070E-01   -1.6640E+00   -3.1050E+00
  1.1450E-01   -1.9010E+00   -3.3160E+00
  6.0980E-02   -2.1090E+00   -3.4910E+00
  2.7080E-02   -2.2790E+00   -3.6290E+00
  8.8870E-03   -2.4060E+00   -3.7280E+00
  1.6370E-03   -2.4850E+00   -3.7870E+00
  0.0000E+00   -2.5110E+00   -3.8070E+00
  1.2200E+00   -4.4380E-03   -8.7370E-01
  1.1480E+00   -2.8880E-02   -1.0010E+00
  1.0390E+00   -8.7840E-02   -1.1970E+00
  9.0670E-01   -1.8780E-01   -1.4430E+00
  7.6220E-01   -3.2810E-01   -1.7200E+00
  6.1690E-01   -5.0330E-01   -2.0110E+00
  4.7920E-01   -7.0460E-01   -2.3020E+00
  3.5550E-01   -9.2190E-01   -2.5830E+00
  2.4970E-01   -1.1440E+00   -2.8450E+00
  1.6410E-01   -1.3620E+00   -3.0820E+00
  9.8710E-02   -1.5640E+00   -3.2880E+00
  5.2590E-02   -1.7420E+00   -3.4610E+00
  2.3350E-02   -1.8890E+00   -3.5970E+00
  7.6410E-03   -1.9980E+00   -3.6950E+00
  1.3950E-03   -2.0660E+00   -3.7550E+00
  0.0000E+00   -2.0890E+00   -3.7750E+00
  9.9210E-01   -3.4330E-03   -1.0310E+00
  9.3690E-01   -2.1770E-02   -1.1400E+00
  8.5250E-01   -6.6480E-02   -1.3100E+00
  7.4770E-01   -1.4350E-01   -1.5270E+00
  6.3210E-01   -2.5370E-01   -1.7740E+00
  5.1420E-01   -3.9350E-01   -2.0390E+00
  4.0140E-01   -5.5640E-01   -2.3070E+00
  2.9900E-01   -7.3440E-01   -2.5680E+00
  2.1080E-01   -9.1850E-01   -2.8140E+00
  1.3890E-01   -1.1000E+00   -3.0380E+00
  8.3790E-02   -1.2690E+00   -3.2350E+00
  4.4740E-02   -1.4200E+00   -3.4010E+00
  1.9920E-02   -1.5440E+00   -3.5330E+00
  6.5450E-03   -1.6370E+00   -3.6280E+00
  1.2060E-03   -1.6950E+00   -3.6860E+00
  0.0000E+00   -1.7140E+00   -3.7050E+00
  7.9510E-01   -2.6760E-03   -1.1860E+00
  7.5300E-01   -1.6470E-02   -1.2790E+00
  6.8780E-01   -5.0240E-02   -1.4250E+00
  6.0610E-01   -1.0920E-01   -1.6130E+00
  5.1480E-01   -1.9470E-01   -1.8310E+00
  4.2090E-01   -3.0460E-01   -2.0670E+00
  3.3000E-01   -4.3440E-01   -2.3090E+00
  2.4680E-01   -5.7760E-01   -2.5470E+00
  1.7470E-01   -7.2710E-01   -2.7740E+00
  1.1550E-01   -8.7540E-01   -2.9820E+00
  6.9890E-02   -1.0150E+00   -3.1650E+00
  3.7460E-02   -1.1400E+00   -3.3210E+00
  1.6750E-02   -1.2430E+00   -3.4450E+00
  5.5580E-03   -1.3200E+00   -3.5350E+00
  1.0540E-03   -1.3680E+00   -3.5900E+00
  0.0000E+00   -1.3840E+00   -3.6080E+00
  6.2660E-01   -2.1070E-03   -1.3360E+00
  5.9460E-01   -1.2440E-02   -1.4150E+00
  5.4490E-01   -3.7800E-02   -1.5390E+00
  4.8210E-01   -8.2430E-02   -1.7010E+00
  4.1120E-01   -1.4790E-01   -1.8900E+00
  3.3760E-01   -2.3290E-01   -2.0960E+00
  2.6580E-01   -3.3440E-01   -2.3110E+00
  1.9960E-01   -4.4750E-01   -2.5230E+00
  1.4180E-01   -5.6650E-01   -2.7270E+00
  9.4070E-02   -6.8540E-01   -2.9160E+00
  5.7140E-02   -7.9810E-01   -3.0840E+00
  3.0740E-02   -8.9890E-01   -3.2260E+00
  1.3830E-02   -9.8290E-01   -3.3400E+00
  4.6430E-03   -1.0460E+00   -3.4240E+00
  9.1310E-04   -1.0850E+00   -3.4740E+00
  0.0000E+00   -1.0980E+00   -3.4910E+00
  4.8410E-01   -1.6620E-03   -1.4810E+00
  4.6020E-01   -9.3670E-03   -1.5460E+00
  4.2290E-01   -2.8190E-02   -1.6510E+00
  3.7540E-01   -6.1540E-02   -1.7870E+00
  3.2140E-01   -1.1080E-01   -1.9490E+00
  2.6490E-01   -1.7540E-01   -2.1270E+00
  2.0930E-01   -2.5320E-01   -2.3120E+00
  1.5780E-01   -3.4060E-01   -2.4990E+00
  1.1250E-01   -4.3330E-01   -2.6780E+00
  7.4900E-02   -5.2640E-01   -2.8450E+00
  4.5660E-02   -6.1520E-01   -2.9950E+00
  2.4680E-02   -6.9500E-01   -3.1230E+00
  1.1180E-02   -7.6160E-01   -3.2250E+00
  3.8110E-03   -8.1180E-01   -3.3000E+00
  7.8230E-04   -8.4300E-01   -3.3460E+00
  0.0000E+00   -8.5360E-01   -3.3620E+00
  3.6560E-01   -1.3140E-03   -1.6170E+00
  3.4800E-01   -6.9980E-03   -1.6710E+00
  3.2050E-01   -2.0780E-02   -1.7580E+00
  2.8520E-01   -4.5270E-02   -1.8720E+00
  2.4500E-01   -8.1640E-02   -2.0070E+00
  2.0260E-01   -1.2970E-01   -2.1570E+00
  1.6070E-01   -1.8790E-01   -2.3150E+00
  1.2150E-01   -2.5380E-01   -2.4740E+00
  8.6960E-02   -3.2410E-01   -2.6290E+00
  5.8120E-02   -3.9520E-01   -2.7730E+00
  3.5570E-02   -4.6330E-01   -2.9040E+00
  1.9340E-02   -5.2470E-01   -3.0150E+00
  8.8360E-03   -5.7620E-01   -3.1050E+00
  3.0720E-03   -6.1510E-01   -3.1710E+00
  6.6360E-04   -6.3930E-01   -3.2120E+00
  0.0000E+00   -6.4750E-01   -3.2250E+00
  2.6870E-01   -1.0370E-03   -1.7450E+00
  2.5610E-01   -5.1680E-03   -1.7890E+00
  2.3620E-01   -1.5080E-02   -1.8590E+00
  2.1070E-01   -3.2670E-02   -1.9520E+00
  1.8150E-01   -5.8900E-02   -2.0630E+00
  1.5050E-01   -9.3730E-02   -2.1860E+00
  1.1970E-01   -1.3620E-01   -2.3180E+00
  9.0860E-02   -1.8440E-01   -2.4510E+00
  6.5230E-02   -2.3620E-01   -2.5800E+00
  4.3770E-02   -2.8880E-01   -2.7030E+00
  2.6920E-02   -3.3940E-01   -2.8130E+00
  1.4730E-02   -3.8520E-01   -2.9080E+00
  6.8100E-03   -4.2380E-01   -2.9850E+00
  2.4220E-03   -4.5290E-01   -3.0410E+00
  5.5750E-04   -4.7110E-01   -3.0760E+00
  0.0000E+00   -4.7720E-01   -3.0870E+00
  1.9140E-01   -8.1790E-04   -1.8620E+00
  1.8250E-01   -3.7730E-03   -1.8970E+00
  1.6860E-01   -1.0730E-02   -1.9530E+00
  1.5070E-01   -2.3050E-02   -2.0270E+00
  1.3000E-01   -4.1450E-02   -2.1150E+00
  1.0810E-01   -6.5930E-02   -2.2150E+00
  8.6220E-02   -9.5870E-02   -2.3210E+00
  6.5630E-02   -1.3010E-01   -2.4290E+00
  4.7290E-02   -1.6690E-01   -2.5350E+00
  3.1860E-02   -2.0450E-01   -2.6350E+00
  1.9720E-02   -2.4070E-01   -2.7250E+00
  1.0880E-02   -2.7360E-01   -2.8040E+00
  5.1110E-03   -3.0130E-01   -2.8670E+00
  1.8810E-03   -3.2230E-01   -2.9140E+00
  4.6820E-04   -3.3540E-01   -2.9430E+00
  0.0000E+00   -3.3990E-01   -2.9520E+00
  1.3140E-01   -6.5100E-04   -1.9680E+00
  1.2540E-01   -2.7310E-03   -1.9940E+00
  1.1590E-01   -7.4900E-03   -2.0370E+00
  1.0370E-01   -1.5850E-02   -2.0950E+00
  8.9660E-02   -2.8320E-02   -2.1640E+00
  7.4680E-02   -4.4940E-02   -2.2410E+00
  5.9710E-02   -6.5290E-02   -2.3240E+00
  4.5580E-02   -8.8590E-02   -2.4090E+00
  3.2960E-02   -1.1370E-01   -2.4930E+00
  2.2320E-02   -1.3940E-01   -2.5720E+00
  1.3910E-02   -1.6420E-01   -2.6440E+00
  7.7730E-03   -1.8680E-01   -2.7060E+00
  3.7330E-03   -2.0590E-01   -2.7570E+00
  1.4400E-03   -2.2030E-01   -2.7940E+00
  3.9500E-04   -2.2930E-01   -2.8170E+00
  0.0000E+00   -2.3240E-01   -2.8240E+00
  8.6570E-02   -5.2070E-04   -2.0600E+00
  8.2660E-02   -1.9560E-03   -2.0800E+00
  7.6490E-02   -5.1150E-03   -2.1120E+00
  6.8520E-02   -1.0590E-02   -2.1550E+00
  5.9310E-02   -1.8730E-02   -2.2070E+00
  4.9480E-02   -2.9560E-02   -2.2650E+00
  3.9640E-02   -4.2820E-02   -2.3280E+00
  3.0330E-02   -5.8020E-02   -2.3920E+00
  2.2000E-02   -7.4440E-02   -2.4550E+00
  1.4970E-02   -9.1230E-02   -2.5150E+00
  9.3950E-03   -1.0750E-01   -2.5700E+00
  5.3100E-03   -1.2230E-01   -2.6180E+00
  2.6040E-03   -1.3480E-01   -2.6570E+00
  1.0450E-03   -1.4420E-01   -2.6850E+00
  3.0850E-04   -1.5020E-01   -2.7030E+00
  0.0000E+00   -1.5220E-01   -2.7090E+00
  5.5070E-02   -3.8690E-04   -2.1370E+00
  5.2620E-02   -1.3360E-03   -2.1520E+00
  4.8750E-02   -3.3440E-03   -2.1750E+00
  4.3730E-02   -6.7850E-03   -2.2060E+00
  3.7920E-02   -1.1880E-02   -2.2430E+00
  3.1710E-02   -1.8650E-02   -2.2850E+00
  2.5460E-02   -2.6960E-02   -2.3300E+00
  1.9540E-02   -3.6500E-02   -2.3770E+00
  1.4220E-02   -4.6820E-02   -2.4230E+00
  9.7160E-03   -5.7400E-02   -2.4670E+00
  6.1330E-03   -6.7660E-02   -2.5070E+00
  3.4950E-03   -7.7020E-02   -2.5420E+00
  1.7390E-03   -8.4930E-02   -2.5700E+00
  7.1650E-04   -9.0940E-02   -2.5910E+00
  2.2100E-04   -9.4690E-02   -2.6040E+00
  0.0000E+00   -9.5970E-02   -2.6080E+00
  3.4220E-02   -3.6870E-04   -2.2010E+00
  3.2780E-02   -1.0560E-03   -2.2100E+00
  3.0490E-02   -2.3450E-03   -2.2260E+00
  2.7510E-02   -4.4550E-03   -2.2470E+00
  2.4040E-02   -7.5120E-03   -2.2720E+00
  2.0310E-02   -1.1540E-02   -2.3000E+00
  1.6540E-02   -1.6460E-02   -2.3310E+00
  1.2930E-02   -2.2110E-02   -2.3630E+00
  9.6540E-03   -2.8210E-02   -2.3940E+00
  6.8380E-03   -3.4480E-02   -2.4240E+00
  4.5520E-03   -4.0550E-02   -2.4520E+00
  2.8160E-03   -4.6100E-02   -2.4760E+00
  1.5930E-03   -5.0800E-02   -2.4950E+00
  8.0200E-04   -5.4360E-02   -2.5100E+00
  3.2010E-04   -5.6590E-02   -2.5180E+00
  0.0000E+00   -5.7350E-02   -2.5210E+00
  3.1220E-02    2.0550E-04   -2.2000E+00
  2.9790E-02    7.6820E-05   -2.2100E+00
  2.7520E-02   -6.8700E-04   -2.2250E+00
  2.4580E-02   -2.3120E-03   -2.2460E+00
  2.1170E-02   -4.9400E-03   -2.2720E+00
  1.7520E-02   -8.5980E-03   -2.3000E+00
  1.3870E-02   -1.3210E-02   -2.3310E+00
  1.0410E-02   -1.8600E-02   -2.3630E+00
  7.3300E-03   -2.4510E-02   -2.3950E+00
  4.7510E-03   -3.0610E-02   -2.4250E+00
  2.7430E-03   -3.6570E-02   -2.4530E+00
  1.3200E-03   -4.2040E-02   -2.4770E+00
  4.4420E-04   -4.6670E-02   -2.4970E+00
  2.1220E-05   -5.0200E-02   -2.5110E+00
 -7.4090E-05   -5.2410E-02   -2.5200E+00
  0.0000E+00   -5.3160E-02   -2.5230E+00
  2.4660E+00   -7.2080E-03   -2.4900E-01
  2.2560E+00   -9.1190E-02   -4.9110E-01
  1.9750E+00   -2.7260E-01   -8.1410E-01
  1.6660E+00   -5.4090E-01   -1.1710E+00
  1.3580E+00   -8.7650E-01   -1.5320E+00
  1.0690E+00   -1.2580E+00   -1.8810E+00
  8.1000E-01   -1.6640E+00   -2.2050E+00
  5.8730E-01   -2.0780E+00   -2.5000E+00
  4.0370E-01   -2.4840E+00   -2.7600E+00
  2.5890E-01   -2.8670E+00   -2.9840E+00
  1.5110E-01   -3.2150E+00   -3.1710E+00
  7.6580E-02   -3.5180E+00   -3.3200E+00
  3.0480E-02   -3.7670E+00   -3.4320E+00
  6.8340E-03   -3.9530E+00   -3.5090E+00
 -9.1900E-04   -4.0720E+00   -3.5510E+00
  0.0000E+00   -4.1130E+00   -3.5640E+00
  2.0980E+00   -4.0490E-03   -3.9210E-01
  1.9400E+00   -6.1340E-02   -5.9830E-01
  1.7170E+00   -1.9560E-01   -8.8950E-01
  1.4630E+00   -4.0570E-01   -1.2260E+00
  1.2020E+00   -6.7940E-01   -1.5780E+00
  9.5250E-01   -9.9990E-01   -1.9260E+00
  7.2550E-01   -1.3500E+00   -2.2570E+00
  5.2820E-01   -1.7110E+00   -2.5630E+00
  3.6410E-01   -2.0700E+00   -2.8380E+00
  2.3390E-01   -2.4110E+00   -3.0780E+00
  1.3660E-01   -2.7230E+00   -3.2810E+00
  6.9250E-02   -2.9950E+00   -3.4460E+00
  2.7600E-02   -3.2180E+00   -3.5740E+00
  6.4140E-03   -3.3850E+00   -3.6640E+00
 -4.8870E-04   -3.4870E+00   -3.7170E+00
  0.0000E+00   -3.5220E+00   -3.7340E+00
  1.7660E+00   -2.5540E-03   -5.4500E-01
  1.6450E+00   -4.3160E-02   -7.2120E-01
  1.4690E+00   -1.4350E-01   -9.7990E-01
  1.2620E+00   -3.0740E-01   -1.2890E+00
  1.0450E+00   -5.2800E-01   -1.6220E+00
  8.3390E-01   -7.9320E-01   -1.9590E+00
  6.3890E-01   -1.0880E+00   -2.2860E+00
  4.6740E-01   -1.3990E+00   -2.5930E+00
  3.2340E-01   -1.7090E+00   -2.8720E+00
  2.0860E-01   -2.0080E+00   -3.1190E+00
  1.2240E-01   -2.2830E+00   -3.3310E+00
  6.2450E-02   -2.5230E+00   -3.5050E+00
  2.5320E-02   -2.7200E+00   -3.6410E+00
  6.3200E-03   -2.8660E+00   -3.7380E+00
 -8.4270E-05   -2.9560E+00   -3.7970E+00
  0.0000E+00   -2.9870E+00   -3.8160E+00
  1.4710E+00   -1.5430E-03   -7.0220E-01
  1.3780E+00   -3.0880E-02   -8.5340E-01
  1.2390E+00   -1.0630E-01   -1.0810E+00
  1.0720E+00   -2.3380E-01   -1.3600E+00
  8.9420E-01   -4.1030E-01   -1.6690E+00
  7.1750E-01   -6.2720E-01   -1.9870E+00
  5.5250E-01   -8.7310E-01   -2.3010E+00
  4.0590E-01   -1.1350E+00   -2.5990E+00
  2.8180E-01   -1.4010E+00   -2.8750E+00
  1.8220E-01   -1.6580E+00   -3.1210E+00
  1.0710E-01   -1.8960E+00   -3.3340E+00
  5.4730E-02   -2.1050E+00   -3.5110E+00
  2.2230E-02   -2.2770E+00   -3.6500E+00
  5.5540E-03   -2.4050E+00   -3.7500E+00
 -5.7030E-05   -2.4840E+00   -3.8100E+00
  0.0000E+00   -2.5100E+00   -3.8300E+00
  1.2110E+00   -9.3160E-04   -8.6160E-01
  1.1390E+00   -2.2360E-02   -9.9100E-01
  1.0300E+00   -7.9070E-02   -1.1900E+00
  8.9750E-01   -1.7760E-01   -1.4390E+00
  7.5290E-01   -3.1740E-01   -1.7190E+00
  6.0750E-01   -4.9260E-01   -2.0130E+00
  4.6990E-01   -6.9440E-01   -2.3080E+00
  3.4660E-01   -9.1260E-01   -2.5920E+00
  2.4130E-01   -1.1360E+00   -2.8570E+00
  1.5640E-01   -1.3540E+00   -3.0950E+00
  9.1980E-02   -1.5580E+00   -3.3040E+00
  4.6970E-02   -1.7370E+00   -3.4780E+00
  1.8980E-02   -1.8850E+00   -3.6160E+00
  4.6570E-03   -1.9950E+00   -3.7150E+00
 -1.2520E-04   -2.0630E+00   -3.7750E+00
  0.0000E+00   -2.0860E+00   -3.7950E+00
  9.8370E-01   -5.1800E-04   -1.0200E+00
  9.2850E-01   -1.6280E-02   -1.1310E+00
  8.4380E-01   -5.8930E-02   -1.3030E+00
  7.3890E-01   -1.3460E-01   -1.5220E+00
  6.2320E-01   -2.4400E-01   -1.7730E+00
  5.0550E-01   -3.8350E-01   -2.0400E+00
  3.9280E-01   -5.4670E-01   -2.3110E+00
  2.9080E-01   -7.2510E-01   -2.5750E+00
  2.0320E-01   -9.0990E-01   -2.8240E+00
  1.3190E-01   -1.0920E+00   -3.0500E+00
  7.7680E-02   -1.2630E+00   -3.2490E+00
  3.9650E-02   -1.4140E+00   -3.4160E+00
  1.5970E-02   -1.5390E+00   -3.5490E+00
  3.8560E-03   -1.6320E+00   -3.6450E+00
 -1.5840E-04   -1.6900E+00   -3.7040E+00
  0.0000E+00   -1.7100E+00   -3.7230E+00
  7.8700E-01   -2.3790E-04   -1.1770E+00
  7.4480E-01   -1.1810E-02   -1.2710E+00
  6.7960E-01   -4.3750E-02   -1.4190E+00
  5.9780E-01   -1.0140E-01   -1.6090E+00
  5.0660E-01   -1.8600E-01   -1.8300E+00
  4.1270E-01   -2.9550E-01   -2.0680E+00
  3.2210E-01   -4.2520E-01   -2.3120E+00
  2.3930E-01   -5.6860E-01   -2.5530E+00
  1.6770E-01   -7.1860E-01   -2.7820E+00
  1.0920E-01   -8.6740E-01   -2.9910E+00
  6.4360E-02   -1.0080E+00   -3.1770E+00
  3.2860E-02   -1.1330E+00   -3.3340E+00
  1.3190E-02   -1.2370E+00   -3.4590E+00
  3.1380E-03   -1.3140E+00   -3.5500E+00
 -1.7200E-04   -1.3620E+00   -3.6050E+00
  0.0000E+00   -1.3790E+00   -3.6240E+00
  6.1880E-01   -4.6600E-05   -1.3290E+00
  5.8680E-01   -8.4810E-03   -1.4080E+00
  5.3710E-01   -3.2200E-02   -1.5340E+00
  4.7430E-01   -7.5570E-02   -1.6970E+00
  4.0350E-01   -1.4010E-01   -1.8880E+00
  3.3010E-01   -2.2460E-01   -2.0970E+00
  2.5850E-01   -3.2590E-01   -2.3130E+00
  1.9270E-01   -4.3900E-01   -2.5280E+00
  1.3540E-01   -5.5820E-01   -2.7340E+00
  8.8320E-02   -6.7740E-01   -2.9240E+00
  5.2130E-02   -7.9050E-01   -3.0930E+00
  2.6590E-02   -8.9170E-01   -3.2370E+00
  1.0630E-02   -9.7600E-01   -3.3520E+00
  2.4680E-03   -1.0390E+00   -3.4360E+00
 -1.8730E-04   -1.0790E+00   -3.4880E+00
  0.0000E+00   -1.0920E+00   -3.5050E+00
  4.7670E-01    8.8140E-05   -1.4740E+00
  4.5280E-01   -5.9760E-03   -1.5400E+00
  4.1550E-01   -2.3360E-02   -1.6460E+00
  3.6800E-01   -5.5540E-02   -1.7840E+00
  3.1420E-01   -1.0390E-01   -1.9470E+00
  2.5790E-01   -1.6790E-01   -2.1270E+00
  2.0260E-01   -2.4530E-01   -2.3140E+00
  1.5150E-01   -3.3260E-01   -2.5020E+00