# vtk DataFile Version 3.0 
vtk output 
ASCII 
DATASET UNSTRUCTURED_GRID 
POINTS            68 float
  0.0000E+00    0.0000E+00    0.0000E+00
  8.3333E-01    0.0000E+00    0.0000E+00
  1.6667E+00    0.0000E+00    0.0000E+00
  2.5000E+00    0.0000E+00    0.0000E+00
  3.3333E+00    0.0000E+00    0.0000E+00
  3.7500E+00    0.0000E+00    0.0000E+00
  4.1667E+00    0.0000E+00    0.0000E+00
  4.5833E+00    0.0000E+00    0.0000E+00
  5.0000E+00    0.0000E+00    0.0000E+00
  5.4167E+00    0.0000E+00    0.0000E+00
  5.8333E+00    0.0000E+00    0.0000E+00
  6.2500E+00    0.0000E+00    0.0000E+00
  6.6667E+00    0.0000E+00    0.0000E+00
  7.5000E+00    0.0000E+00    0.0000E+00
  8.3333E+00    0.0000E+00    0.0000E+00
  9.1667E+00    0.0000E+00    0.0000E+00
  1.0000E+01    0.0000E+00    0.0000E+00
  1.0000E+01    1.0000E+00    0.0000E+00
  9.5833E+00    1.0000E+00    0.0000E+00
  9.1667E+00    1.0000E+00    0.0000E+00
  8.7500E+00    1.0000E+00    0.0000E+00
  8.3333E+00    1.0000E+00    0.0000E+00
  7.5000E+00    1.0000E+00    0.0000E+00
  6.6667E+00    1.0000E+00    0.0000E+00
  5.8333E+00    1.0000E+00    0.0000E+00
  5.0000E+00    1.0000E+00    0.0000E+00
  4.1667E+00    1.0000E+00    0.0000E+00
  3.3333E+00    1.0000E+00    0.0000E+00
  2.5000E+00    1.0000E+00    0.0000E+00
  1.6667E+00    1.0000E+00    0.0000E+00
  1.2500E+00    1.0000E+00    0.0000E+00
  8.3333E-01    1.0000E+00    0.0000E+00
  4.1667E-01    1.0000E+00    0.0000E+00
  0.0000E+00    1.0000E+00    0.0000E+00
  0.0000E+00    0.0000E+00    1.0000E-01
  8.3333E-01    0.0000E+00    1.0000E-01
  1.6667E+00    0.0000E+00    1.0000E-01
  2.5000E+00    0.0000E+00    1.0000E-01
  3.3333E+00    0.0000E+00    1.0000E-01
  3.7500E+00    0.0000E+00    1.0000E-01
  4.1667E+00    0.0000E+00    1.0000E-01
  4.5833E+00    0.0000E+00    1.0000E-01
  5.0000E+00    0.0000E+00    1.0000E-01
  5.4167E+00    0.0000E+00    1.0000E-01
  5.8333E+00    0.0000E+00    1.0000E-01
  6.2500E+00    0.0000E+00    1.0000E-01
  6.6667E+00    0.0000E+00    1.0000E-01
  7.5000E+00    0.0000E+00    1.0000E-01
  8.3333E+00    0.0000E+00    1.0000E-01
  9.1667E+00    0.0000E+00    1.0000E-01
  1.0000E+01    0.0000E+00    1.0000E-01
  1.0000E+01    1.0000E+00    1.0000E-01
  9.5833E+00    1.0000E+00    1.0000E-01
  9.1667E+00    1.0000E+00    1.0000E-01
  8.7500E+00    1.0000E+00    1.0000E-01
  8.3333E+00    1.0000E+00    1.0000E-01
  7.5000E+00    1.0000E+00    1.0000E-01
  6.6667E+00    1.0000E+00    1.0000E-01
  5.8333E+00    1.0000E+00    1.0000E-01
  5.0000E+00    1.0000E+00    1.0000E-01
  4.1667E+00    1.0000E+00    1.0000E-01
  3.3333E+00    1.0000E+00    1.0000E-01
  2.5000E+00    1.0000E+00    1.0000E-01
  1.6667E+00    1.0000E+00    1.0000E-01
  1.2500E+00    1.0000E+00    1.0000E-01
  8.3333E-01    1.0000E+00    1.0000E-01
  4.1667E-01    1.0000E+00    1.0000E-01
  0.0000E+00    1.0000E+00    1.0000E-01
CELLS          16        144 
          8           0           1          32          33          34          35          66          67 
          8           1           2          31          32          35          36          65          66 
          8           2           3          30          31          36          37          64          65 
          8           3           4          29          30          37          38          63          64 
          8           4           5          28          29          38          39          62          63 
          8           5           6          27          28          39          40          61          62 
          8           6           7          26          27          40          41          60          61 
          8           7           8          25          26          41          42          59          60 
          8           8           9          24          25          42          43          58          59 
          8           9          10          23          24          43          44          57          58 
          8          10          11          22          23          44          45          56          57 
          8          11          12          21          22          45          46          55          56 
          8          12          13          20          21          46          47          54          55 
          8          13          14          19          20          47          48          53          54 
          8          14          15          18          19          48          49          52          53 
          8          15          16          17          18          49          50          51          52 
CELL_TYPES     16
 12 
 12 
 12 
 12 
 12 
 12 
 12 
 12 
 12 
 12 
 12 
 12 
 12 
 12 
 12 
 12 
POINT_DATA            68  
VECTORS deplacement   float64  
  0.0000E+00    0.0000E+00    0.0000E+00
  3.0512E-03    7.1463E-04    2.9858E-02
  1.9643E-03    4.3327E-04    1.1752E-01
 -6.5646E-03   -1.8355E-04    2.5776E-01
 -2.4516E-02   -1.7155E-03    4.4449E-01
 -3.7011E-02   -1.6751E-03    5.5346E-01
 -5.2534E-02   -1.7424E-03    6.7109E-01
 -7.0832E-02   -1.8290E-03    7.9682E-01
 -9.1765E-02   -1.9098E-03    9.3023E-01
 -1.1526E-01   -1.9909E-03    1.0709E+00
 -1.4126E-01   -2.0811E-03    1.2183E+00
 -1.6971E-01   -2.1759E-03    1.3720E+00
 -2.0054E-01   -2.2585E-03    1.5314E+00
 -2.6836E-01   -2.2604E-03    1.8634E+00
 -3.4240E-01   -2.4000E-03    2.2086E+00
 -4.2081E-01   -2.5861E-03    2.5625E+00
 -5.0147E-01   -2.7646E-03    2.9205E+00
 -5.0150E-01   -2.7918E-03    2.9208E+00
 -4.6118E-01   -2.7420E-03    2.7419E+00
 -4.2108E-01   -2.7141E-03    2.5634E+00
 -3.8141E-01   -2.6794E-03    2.3856E+00
 -3.4244E-01   -2.6171E-03    2.2090E+00
 -2.6828E-01   -2.6650E-03    1.8633E+00
 -2.0072E-01   -2.6540E-03    1.5317E+00
 -1.4140E-01   -2.6101E-03    1.2191E+00
 -9.1634E-02   -2.5704E-03    9.3048E-01
 -5.2197E-02   -2.5356E-03    6.7071E-01
 -2.3468E-02   -2.4148E-03    4.4489E-01
 -5.3170E-03   -1.9306E-03    2.5874E-01
  3.2778E-03   -4.5861E-04    1.1795E-01
  3.8203E-03   -5.4486E-04    6.6474E-02
  3.1413E-03   -5.9735E-04    2.9378E-02
  1.6862E-03   -7.6011E-04    7.2614E-03
  0.0000E+00    0.0000E+00    0.0000E+00
  0.0000E+00    0.0000E+00    0.0000E+00
 -4.0732E-03   -7.1828E-04    2.9593E-02
 -1.1845E-02   -6.4226E-04    1.1655E-01
 -2.6261E-02   -1.1330E-03    2.5580E-01
 -4.9446E-02   -2.5938E-03    4.4133E-01
 -6.4135E-02   -2.5339E-03    5.4971E-01
 -8.1678E-02   -2.5419E-03    6.6674E-01
 -1.0188E-01   -2.5627E-03    7.9188E-01
 -1.2460E-01   -2.5895E-03    9.2468E-01
 -1.4977E-01   -2.6183E-03    1.0647E+00
 -1.7734E-01   -2.6486E-03    1.2115E+00
 -2.0725E-01   -2.6908E-03    1.3647E+00
 -2.3939E-01   -2.7504E-03    1.5236E+00
 -3.0907E-01   -2.6953E-03    1.8547E+00
 -3.8446E-01   -2.7163E-03    2.1994E+00
 -4.6363E-01   -2.7545E-03    2.5529E+00
 -5.4454E-01   -2.8143E-03    2.9108E+00
 -5.4445E-01   -2.7894E-03    2.9111E+00
 -5.0408E-01   -2.7197E-03    2.7322E+00
 -4.6385E-01   -2.6279E-03    2.5538E+00
 -4.2395E-01   -2.5407E-03    2.3761E+00
 -3.8461E-01   -2.4557E-03    2.1997E+00
 -3.0900E-01   -2.4455E-03    1.8546E+00
 -2.3946E-01   -2.3142E-03    1.5239E+00
 -1.7755E-01   -2.1226E-03    1.2123E+00
 -1.2460E-01   -1.9286E-03    9.2488E-01
 -8.1410E-02   -1.7381E-03    6.6634E-01
 -4.8278E-02   -1.4651E-03    4.4176E-01
 -2.5010E-02   -8.5408E-04    2.5677E-01
 -1.0660E-02    6.6844E-04    1.1697E-01
 -6.7854E-03    6.0987E-04    6.5903E-02
 -3.9520E-03    5.9922E-04    2.9120E-02
 -1.7779E-03    7.5821E-04    7.1877E-03
  0.0000E+00    0.0000E+00    0.0000E+00
