# vtk DataFile Version 3.0 
vtk output 
ASCII 
DATASET UNSTRUCTURED_GRID 
POINTS           578 float
  1.0020E+01    0.0000E+00   -0.0000E+00
  9.9800E+00    0.0000E+00   -0.0000E+00
  3.0840E+00    0.0000E+00    9.4915E+00
  3.0964E+00    0.0000E+00    9.5296E+00
  9.9492E+00    0.0000E+00    7.8300E-01
  9.8571E+00    0.0000E+00    1.5612E+00
  9.7043E+00    0.0000E+00    2.3298E+00
  9.4915E+00    0.0000E+00    3.0840E+00
  9.2203E+00    0.0000E+00    3.8192E+00
  8.8922E+00    0.0000E+00    4.5308E+00
  8.5093E+00    0.0000E+00    5.2145E+00
  8.0740E+00    0.0000E+00    5.8661E+00
  7.5889E+00    0.0000E+00    6.4815E+00
  7.0569E+00    0.0000E+00    7.0569E+00
  6.4815E+00    0.0000E+00    7.5889E+00
  5.8661E+00    0.0000E+00    8.0740E+00
  5.2145E+00    0.0000E+00    8.5093E+00
  4.5308E+00    0.0000E+00    8.8922E+00
  3.8192E+00    0.0000E+00    9.2203E+00
  9.9891E+00    0.0000E+00    7.8620E-01
  9.8966E+00    0.0000E+00    1.5675E+00
  9.7431E+00    0.0000E+00    2.3391E+00
  9.5296E+00    0.0000E+00    3.0964E+00
  9.2573E+00    0.0000E+00    3.8345E+00
  8.9279E+00    0.0000E+00    4.5490E+00
  8.5435E+00    0.0000E+00    5.2354E+00
  8.1064E+00    0.0000E+00    5.8896E+00
  7.6193E+00    0.0000E+00    6.5075E+00
  7.0852E+00    0.0000E+00    7.0852E+00
  6.5075E+00    0.0000E+00    7.6193E+00
  5.8896E+00    0.0000E+00    8.1064E+00
  5.2354E+00    0.0000E+00    8.5435E+00
  4.5490E+00    0.0000E+00    8.9279E+00
  3.8345E+00    0.0000E+00    9.2573E+00
  9.9718E+00    9.8210E-01   -0.0000E+00
  9.8275E+00    1.9548E+00   -0.0000E+00
  9.5885E+00    2.9087E+00   -0.0000E+00
  9.2573E+00    3.8345E+00   -0.0000E+00
  8.8369E+00    4.7234E+00   -0.0000E+00
  8.3313E+00    5.5668E+00   -0.0000E+00
  7.7456E+00    6.3566E+00   -0.0000E+00
  7.0852E+00    7.0852E+00   -0.0000E+00
  6.3566E+00    7.7456E+00   -0.0000E+00
  5.5668E+00    8.3313E+00   -0.0000E+00
  4.7234E+00    8.8369E+00   -0.0000E+00
  3.8345E+00    9.2573E+00   -0.0000E+00
  2.9087E+00    9.5885E+00   -0.0000E+00
  1.9548E+00    9.8275E+00   -0.0000E+00
  9.8210E-01    9.9718E+00   -0.0000E+00
  0.0000E+00    1.0020E+01   -0.0000E+00
  9.9319E+00    9.7820E-01   -0.0000E+00
  9.7882E+00    1.9470E+00   -0.0000E+00
  9.5503E+00    2.8970E+00   -0.0000E+00
  9.2203E+00    3.8192E+00   -0.0000E+00
  8.8016E+00    4.7045E+00   -0.0000E+00
  8.2981E+00    5.5446E+00   -0.0000E+00
  7.7146E+00    6.3312E+00   -0.0000E+00
  7.0569E+00    7.0569E+00   -0.0000E+00
  6.3312E+00    7.7146E+00   -0.0000E+00
  5.5446E+00    8.2981E+00   -0.0000E+00
  4.7045E+00    8.8016E+00   -0.0000E+00
  3.8192E+00    9.2203E+00   -0.0000E+00
  2.8970E+00    9.5503E+00   -0.0000E+00
  1.9470E+00    9.7882E+00   -0.0000E+00
  9.7820E-01    9.9319E+00   -0.0000E+00
 -0.0000E+00    9.9800E+00   -0.0000E+00
  9.9013E+00    9.7520E-01    7.8300E-01
  9.7581E+00    1.9410E+00    7.8300E-01
  9.5208E+00    2.8881E+00    7.8300E-01
  9.1919E+00    3.8074E+00    7.8300E-01
  8.7744E+00    4.6900E+00    7.8300E-01
  8.2725E+00    5.5275E+00    7.8300E-01
  7.6909E+00    6.3117E+00    7.8300E-01
  7.0352E+00    7.0352E+00    7.8300E-01
  6.3117E+00    7.6909E+00    7.8300E-01
  5.5275E+00    8.2725E+00    7.8300E-01
  4.6900E+00    8.7744E+00    7.8300E-01
  3.8074E+00    9.1919E+00    7.8300E-01
  2.8881E+00    9.5208E+00    7.8300E-01
  1.9410E+00    9.7581E+00    7.8300E-01
  9.7520E-01    9.9013E+00    7.8300E-01
  0.0000E+00    9.9492E+00    7.8300E-01
  9.8097E+00    9.6620E-01    1.5612E+00
  9.6677E+00    1.9230E+00    1.5612E+00
  9.4327E+00    2.8614E+00    1.5612E+00
  9.1068E+00    3.7722E+00    1.5612E+00
  8.6932E+00    4.6466E+00    1.5612E+00
  8.1959E+00    5.4763E+00    1.5612E+00
  7.6197E+00    6.2533E+00    1.5612E+00
  6.9700E+00    6.9700E+00    1.5612E+00
  6.2533E+00    7.6197E+00    1.5612E+00
  5.4763E+00    8.1959E+00    1.5612E+00
  4.6466E+00    8.6932E+00    1.5612E+00
  3.7722E+00    9.1068E+00    1.5612E+00
  2.8614E+00    9.4327E+00    1.5612E+00
  1.9230E+00    9.6677E+00    1.5612E+00
  9.6620E-01    9.8097E+00    1.5612E+00
 -0.0000E+00    9.8571E+00    1.5612E+00
  9.6575E+00    9.5120E-01    2.3298E+00
  9.5178E+00    1.8932E+00    2.3298E+00
  9.2864E+00    2.8170E+00    2.3298E+00
  8.9656E+00    3.7137E+00    2.3298E+00
  8.5584E+00    4.5746E+00    2.3298E+00
  8.0688E+00    5.3914E+00    2.3298E+00
  7.5015E+00    6.1563E+00    2.3298E+00
  6.8619E+00    6.8619E+00    2.3298E+00
  6.1563E+00    7.5015E+00    2.3298E+00
  5.3914E+00    8.0688E+00    2.3298E+00
  4.5746E+00    8.5584E+00    2.3298E+00
  3.7137E+00    8.9656E+00    2.3298E+00
  2.8170E+00    9.2864E+00    2.3298E+00
  1.8932E+00    9.5178E+00    2.3298E+00
  9.5120E-01    9.6575E+00    2.3298E+00
  0.0000E+00    9.7043E+00    2.3298E+00
  9.4458E+00    9.3030E-01    3.0840E+00
  9.3092E+00    1.8517E+00    3.0840E+00
  9.0828E+00    2.7552E+00    3.0840E+00
  8.7690E+00    3.6323E+00    3.0840E+00
  8.3708E+00    4.4743E+00    3.0840E+00
  7.8919E+00    5.2732E+00    3.0840E+00
  7.3371E+00    6.0214E+00    3.0840E+00
  6.7115E+00    6.7115E+00    3.0840E+00
  6.0214E+00    7.3371E+00    3.0840E+00
  5.2732E+00    7.8919E+00    3.0840E+00
  4.4743E+00    8.3708E+00    3.0840E+00
  3.6323E+00    8.7690E+00    3.0840E+00
  2.7552E+00    9.0828E+00    3.0840E+00
  1.8517E+00    9.3092E+00    3.0840E+00
  9.3030E-01    9.4458E+00    3.0840E+00
  0.0000E+00    9.4915E+00    3.0840E+00
  9.1759E+00    9.0370E-01    3.8192E+00
  9.0432E+00    1.7988E+00    3.8192E+00
  8.8233E+00    2.6765E+00    3.8192E+00
  8.5185E+00    3.5285E+00    3.8192E+00
  8.1316E+00    4.3464E+00    3.8192E+00
  7.6664E+00    5.1225E+00    3.8192E+00
  7.1274E+00    5.8493E+00    3.8192E+00
  6.5197E+00    6.5197E+00    3.8192E+00
  5.8493E+00    7.1274E+00    3.8192E+00
  5.1225E+00    7.6664E+00    3.8192E+00
  4.3464E+00    8.1316E+00    3.8192E+00
  3.5285E+00    8.5185E+00    3.8192E+00
  2.6765E+00    8.8233E+00    3.8192E+00
  1.7988E+00    9.0432E+00    3.8192E+00
  9.0370E-01    9.1759E+00    3.8192E+00
 -0.0000E+00    9.2203E+00    3.8192E+00
  8.8494E+00    8.7160E-01    4.5308E+00
  8.7214E+00    1.7348E+00    4.5308E+00
  8.5093E+00    2.5813E+00    4.5308E+00
  8.2154E+00    3.4029E+00    4.5308E+00
  7.8423E+00    4.1918E+00    4.5308E+00
  7.3936E+00    4.9403E+00    4.5308E+00
  6.8738E+00    5.6412E+00    4.5308E+00
  6.2878E+00    6.2878E+00    4.5308E+00
  5.6412E+00    6.8738E+00    4.5308E+00
  4.9403E+00    7.3936E+00    4.5308E+00
  4.1918E+00    7.8423E+00    4.5308E+00
  3.4029E+00    8.2154E+00    4.5308E+00
  2.5813E+00    8.5093E+00    4.5308E+00
  1.7348E+00    8.7214E+00    4.5308E+00
  8.7160E-01    8.8494E+00    4.5308E+00
  0.0000E+00    8.8922E+00    4.5308E+00
  8.4684E+00    8.3410E-01    5.2145E+00
  8.3458E+00    1.6601E+00    5.2145E+00
  8.1429E+00    2.4701E+00    5.2145E+00
  7.8616E+00    3.2564E+00    5.2145E+00
  7.5046E+00    4.0113E+00    5.2145E+00
  7.0753E+00    4.7275E+00    5.2145E+00
  6.5778E+00    5.3983E+00    5.2145E+00
  6.0170E+00    6.0170E+00    5.2145E+00
  5.3983E+00    6.5778E+00    5.2145E+00
  4.7275E+00    7.0753E+00    5.2145E+00
  4.0113E+00    7.5046E+00    5.2145E+00
  3.2564E+00    7.8616E+00    5.2145E+00
  2.4701E+00    8.1429E+00    5.2145E+00
  1.6601E+00    8.3458E+00    5.2145E+00
  8.3410E-01    8.4684E+00    5.2145E+00
  0.0000E+00    8.5093E+00    5.2145E+00
  8.0351E+00    7.9140E-01    5.8661E+00
  7.9189E+00    1.5752E+00    5.8661E+00
  7.7263E+00    2.3438E+00    5.8661E+00
  7.4594E+00    3.0898E+00    5.8661E+00
  7.1206E+00    3.8061E+00    5.8661E+00
  6.7133E+00    4.4857E+00    5.8661E+00
  6.2413E+00    5.1221E+00    5.8661E+00
  5.7092E+00    5.7092E+00    5.8661E+00
  5.1221E+00    6.2413E+00    5.8661E+00
  4.4857E+00    6.7133E+00    5.8661E+00
  3.8061E+00    7.1206E+00    5.8661E+00
  3.0898E+00    7.4594E+00    5.8661E+00
  2.3438E+00    7.7263E+00    5.8661E+00
  1.5752E+00    7.9189E+00    5.8661E+00
  7.9140E-01    8.0351E+00    5.8661E+00
 -0.0000E+00    8.0740E+00    5.8661E+00
  7.5523E+00    7.4380E-01    6.4815E+00
  7.4430E+00    1.4805E+00    6.4815E+00
  7.2621E+00    2.2029E+00    6.4815E+00
  7.0112E+00    2.9041E+00    6.4815E+00
  6.6928E+00    3.5774E+00    6.4815E+00
  6.3099E+00    4.2161E+00    6.4815E+00
  5.8663E+00    4.8143E+00    6.4815E+00
  5.3661E+00    5.3661E+00    6.4815E+00
  4.8143E+00    5.8663E+00    6.4815E+00
  4.2161E+00    6.3099E+00    6.4815E+00
  3.5774E+00    6.6928E+00    6.4815E+00
  2.9041E+00    7.0112E+00    6.4815E+00
  2.2029E+00    7.2621E+00    6.4815E+00
  1.4805E+00    7.4430E+00    6.4815E+00
  7.4380E-01    7.5523E+00    6.4815E+00
  0.0000E+00    7.5889E+00    6.4815E+00
  7.0229E+00    6.9170E-01    7.0569E+00
  6.9213E+00    1.3767E+00    7.0569E+00
  6.7531E+00    2.0485E+00    7.0569E+00
  6.5197E+00    2.7006E+00    7.0569E+00
  6.2237E+00    3.3266E+00    7.0569E+00
  5.8676E+00    3.9206E+00    7.0569E+00
  5.4551E+00    4.4769E+00    7.0569E+00
  4.9900E+00    4.9900E+00    7.0569E+00
  4.4769E+00    5.4551E+00    7.0569E+00
  3.9206E+00    5.8676E+00    7.0569E+00
  3.3266E+00    6.2237E+00    7.0569E+00
  2.7006E+00    6.5197E+00    7.0569E+00
  2.0485E+00    6.7531E+00    7.0569E+00
  1.3767E+00    6.9213E+00    7.0569E+00
  6.9170E-01    7.0229E+00    7.0569E+00
  0.0000E+00    7.0569E+00    7.0569E+00
  6.4503E+00    6.3530E-01    7.5889E+00
  6.3570E+00    1.2645E+00    7.5889E+00
  6.2024E+00    1.8815E+00    7.5889E+00
  5.9881E+00    2.4804E+00    7.5889E+00
  5.7162E+00    3.0554E+00    7.5889E+00
  5.3892E+00    3.6009E+00    7.5889E+00
  5.0103E+00    4.1118E+00    7.5889E+00
  4.5831E+00    4.5831E+00    7.5889E+00
  4.1118E+00    5.0103E+00    7.5889E+00
[...]
POINT_DATA           578  
VECTORS deplacement   float64  
  3.2690E+00    0.0000E+00    0.0000E+00
  3.2780E+00    0.0000E+00   -2.5590E-02
  3.8810E-02    0.0000E+00   -2.5270E+00
  3.5440E-02    0.0000E+00   -2.5260E+00
  2.8040E+00    0.0000E+00   -2.0770E-01
  2.3800E+00    0.0000E+00   -3.9510E-01
  2.0010E+00    0.0000E+00   -5.8640E-01
  1.6670E+00    0.0000E+00   -7.7840E-01
  1.3730E+00    0.0000E+00   -9.6980E-01
  1.1160E+00    0.0000E+00   -1.1580E+00
  8.9420E-01    0.0000E+00   -1.3430E+00
  7.0450E-01    0.0000E+00   -1.5200E+00
  5.4440E-01    0.0000E+00   -1.6900E+00
  4.1120E-01    0.0000E+00   -1.8500E+00
  3.0230E-01    0.0000E+00   -1.9990E+00
  2.1540E-01    0.0000E+00   -2.1350E+00
  1.4800E-01    0.0000E+00   -2.2570E+00
  9.7690E-02    0.0000E+00   -2.3640E+00
  6.2260E-02    0.0000E+00   -2.4540E+00
  2.7950E+00    0.0000E+00   -1.8490E-01
  2.3700E+00    0.0000E+00   -3.7460E-01
  1.9910E+00    0.0000E+00   -5.6840E-01
  1.6570E+00    0.0000E+00   -7.6230E-01
  1.3630E+00    0.0000E+00   -9.5580E-01
  1.1060E+00    0.0000E+00   -1.1460E+00
  8.8490E-01    0.0000E+00   -1.3320E+00
  6.9570E-01    0.0000E+00   -1.5110E+00
  5.3600E-01    0.0000E+00   -1.6820E+00
  4.0330E-01    0.0000E+00   -1.8440E+00
  2.9500E-01    0.0000E+00   -1.9940E+00
  2.0880E-01    0.0000E+00   -2.1310E+00
  1.4210E-01    0.0000E+00   -2.2540E+00
  9.2630E-02    0.0000E+00   -2.3620E+00
  5.8150E-02    0.0000E+00   -2.4520E+00
  3.1320E+00   -2.0220E-02   -1.5400E-01
  2.8090E+00   -1.9410E-01   -5.0190E-01
  2.4120E+00   -5.1320E-01   -9.1220E-01
  2.0010E+00   -9.3870E-01   -1.3270E+00
  1.6100E+00   -1.4300E+00   -1.7190E+00
  1.2540E+00   -1.9590E+00   -2.0780E+00
  9.4310E-01   -2.4980E+00   -2.4000E+00
  6.8090E-01   -3.0310E+00   -2.6810E+00
  4.6760E-01   -3.5390E+00   -2.9220E+00
  3.0130E-01   -4.0090E+00   -3.1230E+00
  1.7820E-01   -4.4290E+00   -3.2850E+00
  9.3230E-02   -4.7910E+00   -3.4110E+00
  4.0120E-02   -5.0850E+00   -3.5000E+00
  1.2180E-02   -5.3050E+00   -3.5570E+00
  9.6820E-04   -5.4490E+00   -3.5770E+00
  0.0000E+00   -5.5030E+00   -3.5770E+00
  3.1430E+00   -3.5090E-02   -1.7400E-01
  2.8210E+00   -2.1380E-01   -5.1260E-01
  2.4260E+00   -5.3330E-01   -9.1400E-01
  2.0160E+00   -9.5660E-01   -1.3210E+00
  1.6260E+00   -1.4450E+00   -1.7080E+00
  1.2700E+00   -1.9690E+00   -2.0620E+00
  9.5980E-01   -2.5040E+00   -2.3790E+00
  6.9700E-01   -3.0320E+00   -2.6570E+00
  4.8300E-01   -3.5360E+00   -2.8950E+00
  3.1540E-01   -4.0020E+00   -3.0940E+00
  1.9070E-01   -4.4200E+00   -3.2550E+00
  1.0390E-01   -4.7780E+00   -3.3790E+00
  4.8740E-02   -5.0700E+00   -3.4680E+00
  1.8320E-02   -5.2880E+00   -3.5230E+00
  5.1440E-03   -5.4300E+00   -3.5430E+00
  0.0000E+00   -5.4830E+00   -3.5420E+00
  2.7110E+00   -2.1500E-02   -3.2230E-01
  2.4690E+00   -1.4160E-01   -6.1250E-01
  2.1490E+00   -3.8140E-01   -9.8840E-01
  1.8040E+00   -7.2160E-01   -1.3920E+00
  1.4640E+00   -1.1340E+00   -1.7900E+00
  1.1490E+00   -1.5900E+00   -2.1650E+00
  8.6970E-01   -2.0680E+00   -2.5090E+00
  6.3120E-01   -2.5450E+00   -2.8160E+00
  4.3550E-01   -3.0070E+00   -3.0840E+00
  2.8190E-01   -3.4370E+00   -3.3120E+00
  1.6760E-01   -3.8240E+00   -3.5010E+00
  8.8350E-02   -4.1580E+00   -3.6500E+00
  3.8640E-02   -4.4300E+00   -3.7620E+00
  1.2210E-02   -4.6320E+00   -3.8370E+00
  1.8870E-03   -4.7580E+00   -3.8780E+00
  0.0000E+00   -4.8020E+00   -3.8900E+00
  2.3130E+00   -1.4010E-02   -4.8690E-01
  2.1310E+00   -9.5900E-02   -7.3320E-01
  1.8780E+00   -2.7300E-01   -1.0740E+00
  1.5940E+00   -5.3980E-01   -1.4590E+00
  1.3050E+00   -8.7820E-01   -1.8530E+00
  1.0310E+00   -1.2650E+00   -2.2360E+00
  7.8480E-01   -1.6800E+00   -2.5940E+00
  5.7190E-01   -2.1020E+00   -2.9200E+00
  3.9570E-01   -2.5150E+00   -3.2100E+00
  2.5650E-01   -2.9040E+00   -3.4600E+00
  1.5250E-01   -3.2560E+00   -3.6700E+00
  8.0240E-02   -3.5600E+00   -3.8390E+00
  3.4960E-02   -3.8070E+00   -3.9690E+00
  1.0980E-02   -3.9900E+00   -4.0600E+00
  1.7080E-03   -4.1030E+00   -4.1140E+00
  0.0000E+00   -4.1410E+00   -4.1320E+00
  1.9510E+00   -1.0070E-02   -6.6220E-01
  1.8130E+00   -6.8260E-02   -8.7180E-01
  1.6140E+00   -2.0030E-01   -1.1750E+00
  1.3820E+00   -4.0830E-01   -1.5310E+00
  1.1420E+00   -6.8170E-01   -1.9080E+00
  9.0910E-01   -1.0040E+00   -2.2840E+00
  6.9610E-01   -1.3560E+00   -2.6430E+00
  5.1000E-01   -1.7220E+00   -2.9750E+00
  3.5450E-01   -2.0830E+00   -3.2750E+00
  2.3080E-01   -2.4270E+00   -3.5370E+00
  1.3790E-01   -2.7400E+00   -3.7610E+00
  7.3030E-02   -3.0120E+00   -3.9440E+00
  3.2270E-02   -3.2330E+00   -4.0850E+00
  1.0510E-02   -3.3970E+00   -4.1860E+00
  1.8980E-03   -3.4970E+00   -4.2460E+00
  0.0000E+00   -3.5310E+00   -4.2660E+00
  1.6290E+00   -7.3590E-03   -8.4170E-01
  1.5230E+00   -4.9590E-02   -1.0210E+00
  1.3660E+00   -1.4880E-01   -1.2870E+00
  1.1800E+00   -3.1060E-01   -1.6100E+00
  9.8170E-01   -5.2960E-01   -1.9620E+00
  7.8680E-01   -7.9410E-01   -2.3190E+00
  6.0580E-01   -1.0890E+00   -2.6680E+00
  4.4590E-01   -1.4000E+00   -2.9960E+00
  3.1120E-01   -1.7110E+00   -3.2960E+00
  2.0330E-01   -2.0100E+00   -3.5610E+00
  1.2180E-01   -2.2840E+00   -3.7890E+00
  6.4740E-02   -2.5230E+00   -3.9780E+00
  2.8740E-02   -2.7180E+00   -4.1250E+00
  9.4450E-03   -2.8630E+00   -4.2310E+00
  1.7570E-03   -2.9520E+00   -4.2940E+00
  0.0000E+00   -2.9820E+00   -4.3150E+00
  1.3440E+00   -5.5500E-03   -1.0230E+00
  1.2630E+00   -3.6620E-02   -1.1760E+00
  1.1400E+00   -1.1120E-01   -1.4080E+00
  9.9140E-01   -2.3620E-01   -1.6970E+00
  8.3050E-01   -4.0980E-01   -2.0170E+00
  6.6970E-01   -6.2400E-01   -2.3500E+00
  5.1840E-01   -8.6740E-01   -2.6800E+00
  3.8330E-01   -1.1270E+00   -2.9950E+00
  2.6850E-01   -1.3910E+00   -3.2860E+00
  1.7590E-01   -1.6460E+00   -3.5470E+00
  1.0560E-01   -1.8820E+00   -3.7730E+00
  5.6180E-02   -2.0890E+00   -3.9610E+00
  2.4940E-02   -2.2590E+00   -4.1080E+00
  8.1770E-03   -2.3850E+00   -4.2150E+00
  1.5100E-03   -2.4620E+00   -4.2790E+00
  0.0000E+00   -2.4880E+00   -4.3000E+00
  1.0940E+00   -4.2560E-03   -1.2030E+00
  1.0320E+00   -2.7370E-02   -1.3330E+00
  9.3690E-01   -8.3500E-02   -1.5340E+00
  8.1950E-01   -1.7950E-01   -1.7880E+00
  6.9070E-01   -3.1550E-01   -2.0760E+00
  5.6010E-01   -4.8650E-01   -2.3790E+00
  4.3590E-01   -6.8390E-01   -2.6850E+00
  3.2370E-01   -8.9760E-01   -2.9800E+00
  2.2770E-01   -1.1170E+00   -3.2560E+00
  1.4960E-01   -1.3310E+00   -3.5050E+00
  9.0090E-02   -1.5300E+00   -3.7230E+00
  4.8040E-02   -1.7060E+00   -3.9050E+00
  2.1380E-02   -1.8510E+00   -4.0490E+00
  7.0340E-03   -1.9590E+00   -4.1540E+00
  1.3070E-03   -2.0250E+00   -4.2170E+00
  0.0000E+00   -2.0470E+00   -4.2380E+00
  8.7780E-01   -3.2930E-03   -1.3800E+00
  8.3030E-01   -2.0550E-02   -1.4910E+00
  7.5700E-01   -6.2710E-02   -1.6630E+00
  6.6560E-01   -1.3590E-01   -1.8830E+00
  5.6400E-01   -2.4120E-01   -2.1370E+00
  4.5980E-01   -3.7560E-01   -2.4080E+00
  3.5960E-01   -5.3290E-01   -2.6850E+00
  2.6830E-01   -7.0540E-01   -2.9560E+00
  1.8940E-01   -8.8410E-01   -3.2110E+00
  1.2500E-01   -1.0600E+00   -3.4440E+00
  7.5500E-02   -1.2250E+00   -3.6490E+00
  4.0410E-02   -1.3720E+00   -3.8220E+00
  1.8070E-02   -1.4930E+00   -3.9590E+00
  6.0030E-03   -1.5830E+00   -4.0580E+00
  1.1460E-03   -1.6390E+00   -4.1190E+00
  0.0000E+00   -1.6580E+00   -4.1390E+00
  6.9220E-01   -2.5780E-03   -1.5520E+00
  6.5620E-01   -1.5430E-02   -1.6450E+00
  6.0050E-01   -4.6920E-02   -1.7910E+00
  5.3030E-01   -1.0210E-01   -1.9800E+00
  4.5140E-01   -1.8260E-01   -2.2000E+00
  3.6980E-01   -2.8650E-01   -2.4380E+00
  2.9050E-01   -4.0960E-01   -2.6840E+00
  2.1770E-01   -5.4600E-01   -2.9270E+00
  1.5430E-01   -6.8870E-01   -3.1580E+00
  1.0220E-01   -8.3050E-01   -3.3710E+00
  6.1990E-02   -9.6430E-01   -3.5590E+00
  3.3320E-02   -1.0830E+00   -3.7190E+00
  1.4990E-02   -1.1820E+00   -3.8460E+00
  5.0410E-03   -1.2560E+00   -3.9390E+00
  9.9880E-04   -1.3020E+00   -3.9950E+00
  0.0000E+00   -1.3180E+00   -4.0140E+00
  5.3520E-01   -2.0230E-03   -1.7160E+00
  5.0840E-01   -1.1550E-02   -1.7930E+00
  4.6660E-01   -3.4830E-02   -1.9160E+00
  4.1350E-01   -7.5930E-02   -2.0760E+00
  3.5340E-01   -1.3640E-01   -2.2630E+00
  2.9070E-01   -2.1530E-01   -2.4690E+00
  2.2930E-01   -3.0970E-01   -2.6830E+00
  1.7260E-01   -4.1520E-01   -2.8960E+00
  1.2280E-01   -5.2660E-01   -3.1000E+00
  8.1650E-02   -6.3810E-01   -3.2900E+00
  4.9720E-02   -7.4380E-01   -3.4590E+00
  2.6860E-02   -8.3850E-01   -3.6030E+00
  1.2170E-02   -9.1750E-01   -3.7180E+00
  4.1570E-03   -9.7680E-01   -3.8020E+00
  8.6000E-04   -1.0140E+00   -3.8530E+00
  0.0000E+00   -1.0260E+00   -3.8710E+00
  4.0440E-01   -1.5920E-03   -1.8710E+00
  3.8470E-01   -8.5940E-03   -1.9350E+00
  3.5390E-01   -2.5570E-02   -2.0360E+00
  3.1460E-01   -5.5680E-02   -2.1690E+00
  2.6980E-01   -1.0020E-01   -2.3260E+00
  2.2280E-01   -1.5880E-01   -2.5000E+00
  1.7640E-01   -2.2950E-01   -2.6820E+00
  1.3320E-01   -3.0920E-01   -2.8640E+00
  9.5190E-02   -3.9390E-01   -3.0410E+00
  6.3550E-02   -4.7910E-01   -3.2060E+00
  3.8860E-02   -5.6050E-01   -3.3540E+00
  2.1120E-02   -6.3370E-01   -3.4800E+00
  9.6530E-03   -6.9500E-01   -3.5820E+00
  3.3640E-03   -7.4110E-01   -3.6570E+00
  7.3220E-04   -7.6980E-01   -3.7020E+00
  0.0000E+00   -7.7950E-01   -3.7170E+00
  2.9750E-01   -1.2520E-03   -2.0160E+00
  2.8330E-01   -6.3230E-03   -2.0670E+00
  2.6110E-01   -1.8500E-02   -2.1490E+00
  2.3270E-01   -4.0080E-02   -2.2580E+00
  2.0010E-01   -7.2150E-02   -2.3870E+00
  1.6570E-01   -1.1460E-01   -2.5300E+00
  1.3170E-01   -1.6610E-01   -2.6810E+00
  9.9810E-02   -2.2450E-01   -2.8340E+00
  7.1580E-02   -2.8690E-01   -2.9830E+00
  4.7980E-02   -3.5020E-01   -3.1230E+00
  2.9490E-02   -4.1080E-01   -3.2480E+00
  1.6140E-02   -4.6560E-01   -3.3560E+00
  7.4650E-03   -5.1160E-01   -3.4440E+00
  2.6620E-03   -5.4630E-01   -3.5080E+00
  6.1760E-04   -5.6790E-01   -3.5470E+00
  0.0000E+00   -5.7530E-01   -3.5600E+00
  2.1200E-01   -9.8520E-04   -2.1490E+00
  2.0210E-01   -4.6010E-03   -2.1890E+00
  1.8660E-01   -1.3130E-02   -2.2540E+00
  1.6650E-01   -2.8210E-02   -2.3410E+00
  1.4360E-01   -5.0680E-02   -2.4440E+00
  1.1920E-01   -8.0500E-02   -2.5590E+00
  9.4980E-02   -1.1680E-01   -2.6810E+00
  7.2220E-02   -1.5820E-01   -2.8060E+00
  5.1990E-02   -2.0270E-01   -2.9280E+00
  3.5010E-02   -2.4790E-01   -3.0420E+00
  2.1650E-02   -2.9140E-01   -3.1460E+00
  1.1950E-02   -3.3080E-01   -3.2350E+00
  5.6220E-03   -3.6400E-01   -3.3080E+00
  2.0760E-03   -3.8910E-01   -3.3610E+00
  5.2130E-04   -4.0480E-01   -3.3940E+00
  0.0000E+00   -4.1010E-01   -3.4050E+00
  1.4570E-01   -7.8100E-04   -2.2680E+00
  1.3900E-01   -3.3190E-03   -2.2990E+00
  1.2840E-01   -9.1420E-03   -2.3490E+00
  1.1480E-01   -1.9370E-02   -2.4160E+00
  9.9130E-02   -3.4590E-02   -2.4960E+00
  8.2470E-02   -5.4820E-02   -2.5860E+00
  6.5860E-02   -7.9530E-02   -2.6820E+00
  5.0230E-02   -1.0770E-01   -2.7800E+00
  3.6290E-02   -1.3810E-01   -2.8760E+00
  2.4560E-02   -1.6900E-01   -2.9670E+00
  1.5300E-02   -1.9890E-01   -3.0500E+00
  8.5560E-03   -2.2600E-01   -3.1210E+00
  4.1160E-03   -2.4880E-01   -3.1790E+00
  1.5940E-03   -2.6610E-01   -3.2220E+00
  4.4080E-04   -2.7690E-01   -3.2480E+00
  0.0000E+00   -2.8060E-01   -3.2570E+00
  9.6190E-02   -6.2390E-04   -2.3720E+00
  9.1810E-02   -2.3720E-03   -2.3950E+00
  8.4890E-02   -6.2310E-03   -2.4330E+00
  7.5970E-02   -1.2920E-02   -2.4830E+00
  6.5690E-02   -2.2850E-02   -2.5430E+00
  5.4730E-02   -3.6030E-02   -2.6110E+00
  4.3800E-02   -5.2140E-02   -2.6830E+00
  3.3480E-02   -7.0550E-02   -2.7570E+00
  2.4260E-02   -9.0400E-02   -2.8310E+00
  1.6490E-02   -1.1070E-01   -2.9000E+00
  1.0350E-02   -1.3020E-01   -2.9630E+00
  5.8470E-03   -1.4800E-01   -3.0170E+00
  2.8690E-03   -1.6300E-01   -3.0620E+00
  1.1540E-03   -1.7440E-01   -3.0950E+00
  3.4200E-04   -1.8140E-01   -3.1150E+00
  0.0000E+00   -1.8380E-01   -3.1220E+00
  6.1320E-02   -4.6510E-04   -2.4590E+00
  5.8570E-02   -1.6190E-03   -2.4760E+00
  5.4230E-02   -4.0690E-03   -2.5030E+00
  4.8610E-02   -8.2670E-03   -2.5390E+00
  4.2110E-02   -1.4470E-02   -2.5820E+00
  3.5170E-02   -2.2720E-02   -2.6310E+00
  2.8220E-02   -3.2800E-02   -2.6840E+00
  2.1630E-02   -4.4360E-02   -2.7380E+00
  1.5730E-02   -5.6850E-02   -2.7910E+00
  1.0740E-02   -6.9630E-02   -2.8410E+00
  6.7730E-03   -8.1990E-02   -2.8880E+00
  3.8590E-03   -9.3250E-02   -2.9280E+00
  1.9210E-03   -1.0280E-01   -2.9600E+00
  7.9190E-04   -1.1000E-01   -2.9840E+00
  2.4470E-04   -1.1450E-01   -2.9990E+00
  0.0000E+00   -1.1600E-01   -3.0040E+00
  3.8260E-02   -4.3210E-04   -2.5310E+00
  3.6640E-02   -1.2530E-03   -2.5420E+00
  3.4070E-02   -2.8080E-03   -2.5600E+00
  3.0730E-02   -5.3630E-03   -2.5840E+00
  2.6860E-02   -9.0690E-03   -2.6130E+00
  2.2680E-02   -1.3950E-02   -2.6470E+00
  1.8470E-02   -1.9910E-02   -2.6820E+00
  1.4440E-02   -2.6740E-02   -2.7190E+00
  1.0790E-02   -3.4120E-02   -2.7550E+00
  7.6510E-03   -4.1680E-02   -2.7900E+00
  5.1050E-03   -4.9000E-02   -2.8220E+00
  3.1700E-03   -5.5680E-02   -2.8490E+00
  1.8030E-03   -6.1330E-02   -2.8720E+00
  9.1480E-04   -6.5610E-02   -2.8880E+00
  3.6800E-04   -6.8290E-02   -2.8980E+00
  0.0000E+00   -6.9200E-02   -2.9020E+00
  3.4890E-02    2.4780E-04   -2.5300E+00
  3.3280E-02    8.7930E-05   -2.5410E+00
  3.0740E-02   -8.4560E-04   -2.5590E+00
  2.7440E-02   -2.8270E-03   -2.5840E+00
  2.3620E-02   -6.0270E-03   -2.6130E+00
  1.9550E-02   -1.0470E-02   -2.6470E+00
  1.5460E-02   -1.6070E-02   -2.6830E+00
  1.1610E-02   -2.2600E-02   -2.7200E+00
  8.1760E-03   -2.9740E-02   -2.7560E+00
  5.3060E-03   -3.7120E-02   -2.7910E+00
  3.0740E-03   -4.4310E-02   -2.8230E+00
  1.4910E-03   -5.0880E-02   -2.8510E+00
  5.1470E-04   -5.6460E-02   -2.8730E+00
  3.9390E-05   -6.0700E-02   -2.8900E+00
 -7.3740E-05   -6.3350E-02   -2.9000E+00
  0.0000E+00   -6.4260E-02   -2.9040E+00
  2.7010E+00   -1.0680E-02   -3.0300E-01
  2.4570E+00   -1.2500E-01   -6.0060E-01
  2.1370E+00   -3.6330E-01   -9.8430E-01
  1.7910E+00   -7.0440E-01   -1.3950E+00
  1.4500E+00   -1.1190E+00   -1.7990E+00
  1.1350E+00   -1.5790E+00   -2.1800E+00
  8.5500E-01   -2.0600E+00   -2.5280E+00
  6.1680E-01   -2.5410E+00   -2.8380E+00
  4.2190E-01   -3.0060E+00   -3.1090E+00
  2.6940E-01   -3.4400E+00   -3.3400E+00
  1.5650E-01   -3.8310E+00   -3.5300E+00
  7.8870E-02   -4.1670E+00   -3.6810E+00
  3.1150E-02   -4.4410E+00   -3.7940E+00
  6.8550E-03   -4.6450E+00   -3.8700E+00
 -1.0110E-03   -4.7730E+00   -3.9120E+00
  0.0000E+00   -4.8170E+00   -3.9250E+00
  2.3030E+00   -5.8460E-03   -4.6860E-01
  2.1200E+00   -8.2220E-02   -7.2020E-01
  1.8670E+00   -2.5690E-01   -1.0670E+00
  1.5810E+00   -5.2350E-01   -1.4590E+00
  1.2920E+00   -8.6320E-01   -1.8590E+00
  1.0180E+00   -1.2530E+00   -2.2470E+00
  7.7150E-01   -1.6700E+00   -2.6100E+00
  5.5900E-01   -2.0950E+00   -2.9400E+00
  3.8350E-01   -2.5110E+00   -3.2320E+00
  2.4530E-01   -2.9030E+00   -3.4850E+00
  1.4260E-01   -3.2580E+00   -3.6970E+00
  7.1860E-02   -3.5640E+00   -3.8690E+00
  2.8400E-02   -3.8140E+00   -4.0000E+00
  6.4350E-03   -3.9980E+00   -4.0920E+00
 -6.1650E-04   -4.1120E+00   -4.1470E+00
  0.0000E+00   -4.1500E+00   -4.1640E+00
  1.9410E+00   -3.6710E-03   -6.4560E-01
  1.8030E+00   -5.7020E-02   -8.5910E-01
  1.6030E+00   -1.8640E-01   -1.1670E+00
  1.3710E+00   -3.9350E-01   -1.5290E+00
  1.1300E+00   -6.6730E-01   -1.9110E+00
  8.9680E-01   -9.9090E-01   -2.2910E+00
  6.8390E-01   -1.3450E+00   -2.6550E+00
  4.9810E-01   -1.7130E+00   -2.9910E+00
  3.4330E-01   -2.0770E+00   -3.2940E+00
  2.2060E-01   -2.4230E+00   -3.5590E+00
  1.2890E-01   -2.7390E+00   -3.7850E+00
  6.5530E-02   -3.0120E+00   -3.9700E+00
  2.6440E-02   -3.2350E+00   -4.1130E+00
  6.5180E-03   -3.4000E+00   -4.2150E+00
 -1.4070E-04   -3.5010E+00   -4.2760E+00
  0.0000E+00   -3.5360E+00   -4.2960E+00
  1.6190E+00   -2.1950E-03   -8.2680E-01
  1.5130E+00   -4.0250E-02   -1.0090E+00
  1.3560E+00   -1.3670E-01   -1.2800E+00
  1.1690E+00   -2.9730E-01   -1.6070E+00
  9.7030E-01   -5.1620E-01   -1.9630E+00
  7.7530E-01   -7.8130E-01   -2.3250E+00
  5.9460E-01   -1.0780E+00   -2.6780E+00
  4.3510E-01   -1.3900E+00   -3.0100E+00
  3.0100E-01   -1.7030E+00   -3.3120E+00
  1.9400E-01   -2.0040E+00   -3.5810E+00
  1.1370E-01   -2.2800E+00   -3.8110E+00
  5.7930E-02   -2.5210E+00   -4.0010E+00
  2.3460E-02   -2.7170E+00   -4.1500E+00
  5.8380E-03   -2.8630E+00   -4.2560E+00
 -7.2540E-05   -2.9520E+00   -4.3200E+00
  0.0000E+00   -2.9820E+00   -4.3420E+00
  1.3340E+00   -1.3390E-03   -1.0100E+00
  1.2530E+00   -2.8830E-02   -1.1650E+00
  1.1300E+00   -1.0080E-01   -1.4010E+00
  9.8090E-01   -2.2440E-01   -1.6930E+00
  8.1990E-01   -3.9740E-01   -2.0170E+00
  6.5910E-01   -6.1190E-01   -2.3540E+00
  5.0800E-01   -8.5610E-01   -2.6880E+00
  3.7330E-01   -1.1170E+00   -3.0060E+00
  2.5910E-01   -1.3820E+00   -3.3000E+00
  1.6740E-01   -1.6390E+00   -3.5640E+00
  9.8200E-02   -1.8760E+00   -3.7920E+00
  5.0030E-02   -2.0840E+00   -3.9810E+00
  2.0160E-02   -2.2550E+00   -4.1300E+00
  4.9290E-03   -2.3820E+00   -4.2380E+00
 -1.4310E-04   -2.4600E+00   -4.3020E+00
  0.0000E+00   -2.4860E+00   -4.3240E+00
  1.0850E+00   -7.6230E-04   -1.1920E+00
  1.0220E+00   -2.0810E-02   -1.3240E+00
  9.2700E-01   -7.4560E-02   -1.5270E+00
  8.0950E-01   -1.6900E-01   -1.7840E+00
  6.8070E-01   -3.0430E-01   -2.0750E+00
  5.5030E-01   -4.7500E-01   -2.3820E+00
  4.2630E-01   -6.7280E-01   -2.6910E+00
  3.1460E-01   -8.8720E-01   -2.9890E+00
  2.1910E-01   -1.1070E+00   -3.2680E+00
  1.4190E-01   -1.3230E+00   -3.5200E+00
  8.3360E-02   -1.5230E+00   -3.7390E+00
  4.2440E-02   -1.7000E+00   -3.9230E+00
  1.7050E-02   -1.8450E+00   -4.0690E+00
  4.0910E-03   -1.9540E+00   -4.1740E+00
 -1.8500E-04   -2.0210E+00   -4.2380E+00
  0.0000E+00   -2.0430E+00   -4.2590E+00
  8.6850E-01   -3.7720E-04   -1.3700E+00
  8.2090E-01   -1.4990E-02   -1.4820E+00
  7.4760E-01   -5.5010E-02   -1.6560E+00
  6.5620E-01   -1.2670E-01   -1.8790E+00
  5.5460E-01   -2.3100E-01   -2.1360E+00
  4.5060E-01   -3.6500E-01   -2.4100E+00
  3.5070E-01   -5.2240E-01   -2.6900E+00
  2.5990E-01   -6.9520E-01   -2.9630E+00
  1.8160E-01   -8.7460E-01   -3.2210E+00
  1.1790E-01   -1.0510E+00   -3.4560E+00
  6.9380E-02   -1.2170E+00   -3.6630E+00
  3.5340E-02   -1.3640E+00   -3.8380E+00
  1.4150E-02   -1.4860E+00   -3.9760E+00
  3.3420E-03   -1.5770E+00   -4.0760E+00
 -2.0030E-04   -1.6330E+00   -4.1370E+00
  0.0000E+00   -1.6520E+00   -4.1570E+00
  6.8330E-01   -1.1770E-04   -1.5430E+00
  6.4730E-01   -1.0710E-02   -1.6370E+00
  5.9160E-01   -4.0290E-02   -1.7850E+00
  5.2140E-01   -9.4030E-02   -1.9760E+00
  4.4270E-01   -1.7350E-01   -2.1980E+00
  3.6130E-01   -2.7680E-01   -2.4390E+00
  2.8230E-01   -3.9980E-01   -2.6880E+00
  2.1000E-01   -5.3630E-01   -2.9330E+00
  1.4720E-01   -6.7930E-01   -3.1660E+00
  9.5800E-02   -8.2150E-01   -3.3810E+00
  5.6430E-02   -9.5570E-01   -3.5710E+00
  2.8720E-02   -1.0750E+00   -3.7320E+00
  1.1450E-02   -1.1750E+00   -3.8610E+00
  2.6390E-03   -1.2490E+00   -3.9540E+00
 -2.1510E-04   -1.2950E+00   -4.0110E+00
  0.0000E+00   -1.3110E+00   -4.0300E+00
  5.2670E-01    6.3660E-05   -1.7090E+00
  5.0000E-01   -7.5190E-03   -1.7870E+00
  4.5820E-01   -2.9110E-02   -1.9110E+00
  4.0520E-01   -6.8860E-02   -2.0720E+00
  3.4530E-01   -1.2830E-01   -2.2620E+00
  2.8280E-01   -2.0650E-01   -2.4690E+00
  2.2180E-01   -3.0060E-01   -2.6850E+00
  1.6550E-01   -4.0600E-01   -2.9010E+00