# vtk DataFile Version 3.0 
vtk output 
ASCII 
DATASET UNSTRUCTURED_GRID 
POINTS            68 float
  0.0000E+00    0.0000E+00    0.0000E+00
  8.3333E-01    0.0000E+00    0.0000E+00
  1.6667E+00    0.0000E+00    0.0000E+00
  2.5000E+00    0.0000E+00    0.0000E+00
  3.3333E+00    0.0000E+00    0.0000E+00
  3.7500E+00    0.0000E+00    0.0000E+00
  4.1667E+00    0.0000E+00    0.0000E+00
  4.5833E+00    0.0000E+00    0.0000E+00
  5.0000E+00    0.0000E+00    0.0000E+00
  5.4167E+00    0.0000E+00    0.0000E+00
  5.8333E+00    0.0000E+00    0.0000E+00
  6.2500E+00    0.0000E+00    0.0000E+00
  6.6667E+00    0.0000E+00    0.0000E+00
  7.5000E+00    0.0000E+00    0.0000E+00
  8.3333E+00    0.0000E+00    0.0000E+00
  9.1667E+00    0.0000E+00    0.0000E+00
  1.0000E+01    0.0000E+00    0.0000E+00
  1.0000E+01    1.0000E+00    0.0000E+00
  9.5833E+00    1.0000E+00    0.0000E+00
  9.1667E+00    1.0000E+00    0.0000E+00
  8.7500E+00    1.0000E+00    0.0000E+00
  8.3333E+00    1.0000E+00    0.0000E+00
  7.5000E+00    1.0000E+00    0.0000E+00
  6.6667E+00    1.0000E+00    0.0000E+00
  5.8333E+00    1.0000E+00    0.0000E+00
  5.0000E+00    1.0000E+00    0.0000E+00
  4.1667E+00    1.0000E+00    0.0000E+00
  3.3333E+00    1.0000E+00    0.0000E+00
  2.5000E+00    1.0000E+00    0.0000E+00
  1.6667E+00    1.0000E+00    0.0000E+00
  1.2500E+00    1.0000E+00    0.0000E+00
  8.3333E-01    1.0000E+00    0.0000E+00
  4.1667E-01    1.0000E+00    0.0000E+00
  0.0000E+00    1.0000E+00    0.0000E+00
  0.0000E+00    0.0000E+00    1.0000E-01
  8.3333E-01    0.0000E+00    1.0000E-01
  1.6667E+00    0.0000E+00    1.0000E-01
  2.5000E+00    0.0000E+00    1.0000E-01
  3.3333E+00    0.0000E+00    1.0000E-01
  3.7500E+00    0.0000E+00    1.0000E-01
  4.1667E+00    0.0000E+00    1.0000E-01
  4.5833E+00    0.0000E+00    1.0000E-01
  5.0000E+00    0.0000E+00    1.0000E-01
  5.4167E+00    0.0000E+00    1.0000E-01
  5.8333E+00    0.0000E+00    1.0000E-01
  6.2500E+00    0.0000E+00    1.0000E-01
  6.6667E+00    0.0000E+00    1.0000E-01
  7.5000E+00    0.0000E+00    1.0000E-01
  8.3333E+00    0.0000E+00    1.0000E-01
  9.1667E+00    0.0000E+00    1.0000E-01
  1.0000E+01    0.0000E+00    1.0000E-01
  1.0000E+01    1.0000E+00    1.0000E-01
  9.5833E+00    1.0000E+00    1.0000E-01
  9.1667E+00    1.0000E+00    1.0000E-01
  8.7500E+00    1.0000E+00    1.0000E-01
  8.3333E+00    1.0000E+00    1.0000E-01
  7.5000E+00    1.0000E+00    1.0000E-01
  6.6667E+00    1.0000E+00    1.0000E-01
  5.8333E+00    1.0000E+00    1.0000E-01
  5.0000E+00    1.0000E+00    1.0000E-01
  4.1667E+00    1.0000E+00    1.0000E-01
  3.3333E+00    1.0000E+00    1.0000E-01
  2.5000E+00    1.0000E+00    1.0000E-01
  1.6667E+00    1.0000E+00    1.0000E-01
  1.2500E+00    1.0000E+00    1.0000E-01
  8.3333E-01    1.0000E+00    1.0000E-01
  4.1667E-01    1.0000E+00    1.0000E-01
  0.0000E+00    1.0000E+00    1.0000E-01
CELLS          16        144 
          8           0           1          32          33          34          35          66          67 
          8           1           2          31          32          35          36          65          66 
          8           2           3          30          31          36          37          64          65 
          8           3           4          29          30          37          38          63          64 
          8           4           5          28          29          38          39          62          63 
          8           5           6          27          28          39          40          61          62 
          8           6           7          26          27          40          41          60          61 
          8           7           8          25          26          41          42          59          60 
          8           8           9          24          25          42          43          58          59 
          8           9          10          23          24          43          44          57          58 
          8          10          11          22          23          44          45          56          57 
          8          11          12          21          22          45          46          55          56 
          8          12          13          20          21          46          47          54          55 
          8          13          14          19          20          47          48          53          54 
          8          14          15          18          19          48          49          52          53 
          8          15          16          17          18          49          50          51          52 
CELL_TYPES     16
 12 
 12 
 12 
 12 
 12 
 12 
 12 
 12 
 12 
 12 
 12 
 12 
 12 
 12 
 12 
 12 
POINT_DATA            68  
VECTORS deplacement   float64  
  0.0000E+00    0.0000E+00    0.0000E+00
  5.9505E-03    1.9975E-03    8.6145E-02
 -2.0557E-02    7.4528E-04    3.3328E-01
 -1.0137E-01   -3.0661E-03    7.1455E-01
 -2.4612E-01   -1.2700E-02    1.2014E+00
 -3.4096E-01   -1.2117E-02    1.4783E+00
 -4.5311E-01   -1.2197E-02    1.7689E+00
 -5.8037E-01   -1.2314E-02    2.0724E+00
 -7.2158E-01   -1.2333E-02    2.3879E+00
 -8.7603E-01   -1.2293E-02    2.7143E+00
 -1.0431E+00   -1.2236E-02    3.0505E+00
 -1.2221E+00   -1.2165E-02    3.3953E+00
 -1.4123E+00   -1.2035E-02    3.7475E+00
 -1.8193E+00   -1.0989E-02    4.4661E+00
 -2.2529E+00   -1.0397E-02    5.1992E+00
 -2.7043E+00   -9.9241E-03    5.9408E+00
 -3.1642E+00   -9.4299E-03    6.6861E+00
 -3.1632E+00   -9.4917E-03    6.6846E+00
 -2.9334E+00   -9.8169E-03    6.3121E+00
 -2.7044E+00   -1.0186E-02    5.9399E+00
 -2.4769E+00   -1.0538E-02    5.5683E+00
 -2.2520E+00   -1.0799E-02    5.1976E+00
 -1.8175E+00   -1.2010E-02    4.4638E+00
 -1.4114E+00   -1.2832E-02    3.7454E+00
 -1.0425E+00   -1.3383E-02    3.0497E+00
 -7.1949E-01   -1.3814E-02    2.3862E+00
 -4.4959E-01   -1.4072E-02    1.7660E+00
 -2.3941E-01   -1.3568E-02    1.2040E+00
 -9.3879E-02   -1.0554E-02    7.1962E-01
 -1.1949E-02   -8.5779E-04    3.3614E-01
  2.5585E-03   -1.3959E-03    1.8994E-01
  6.7877E-03   -1.7160E-03    8.3823E-02
  4.5170E-03   -2.2064E-03    2.0636E-02
  0.0000E+00    0.0000E+00    0.0000E+00
  0.0000E+00    0.0000E+00    0.0000E+00
 -1.4329E-02   -2.0078E-03    8.3981E-02
 -5.8564E-02   -1.9845E-03    3.2573E-01
 -1.5346E-01   -5.2895E-03    6.9990E-01
 -3.0924E-01   -1.4553E-02    1.1789E+00
 -4.0821E-01   -1.3970E-02    1.4523E+00
 -5.2388E-01   -1.3804E-02    1.7396E+00
 -6.5427E-01   -1.3677E-02    2.0398E+00
 -7.9827E-01   -1.3537E-02    2.3520E+00
 -9.5521E-01   -1.3367E-02    2.6754E+00
 -1.1245E+00   -1.3176E-02    3.0086E+00
 -1.3054E+00   -1.2995E-02    3.3507E+00
 -1.4972E+00   -1.2821E-02    3.7003E+00
 -1.9064E+00   -1.1663E-02    4.4153E+00
 -2.3414E+00   -1.0829E-02    5.1457E+00
 -2.7936E+00   -1.0057E-02    5.8858E+00
 -3.2537E+00   -9.3267E-03    6.6306E+00
 -3.2526E+00   -9.2853E-03    6.6294E+00
 -3.0227E+00   -9.5704E-03    6.2570E+00
 -2.7936E+00   -9.8068E-03    5.8851E+00
 -2.5659E+00   -1.0044E-02    5.5139E+00
 -2.3407E+00   -1.0253E-02    5.1439E+00
 -1.9046E+00   -1.1326E-02    4.4129E+00
 -1.4962E+00   -1.1864E-02    3.6984E+00
 -1.1240E+00   -1.2049E-02    3.0077E+00
 -7.9643E-01   -1.2068E-02    2.3500E+00
 -5.2049E-01   -1.1879E-02    1.7365E+00
 -3.0222E-01   -1.0901E-02    1.1817E+00
 -1.4589E-01   -7.4533E-03    7.0496E-01
 -5.0467E-02    2.2814E-03    3.2840E-01
 -2.7148E-02    1.9016E-03    1.8536E-01
 -1.3233E-02    1.7168E-03    8.1742E-02
 -5.2133E-03    2.1753E-03    2.0047E-02
  0.0000E+00    0.0000E+00    0.0000E+00
