# vtk DataFile Version 3.0 
vtk output 
ASCII 
DATASET UNSTRUCTURED_GRID 
POINTS            68 float
  0.0000E+00    0.0000E+00    0.0000E+00
  8.3333E-01    0.0000E+00    0.0000E+00
  1.6667E+00    0.0000E+00    0.0000E+00
  2.5000E+00    0.0000E+00    0.0000E+00
  3.3333E+00    0.0000E+00    0.0000E+00
  3.7500E+00    0.0000E+00    0.0000E+00
  4.1667E+00    0.0000E+00    0.0000E+00
  4.5833E+00    0.0000E+00    0.0000E+00
  5.0000E+00    0.0000E+00    0.0000E+00
  5.4167E+00    0.0000E+00    0.0000E+00
  5.8333E+00    0.0000E+00    0.0000E+00
  6.2500E+00    0.0000E+00    0.0000E+00
  6.6667E+00    0.0000E+00    0.0000E+00
  7.5000E+00    0.0000E+00    0.0000E+00
  8.3333E+00    0.0000E+00    0.0000E+00
  9.1667E+00    0.0000E+00    0.0000E+00
  1.0000E+01    0.0000E+00    0.0000E+00
  1.0000E+01    1.0000E+00    0.0000E+00
  9.5833E+00    1.0000E+00    0.0000E+00
  9.1667E+00    1.0000E+00    0.0000E+00
  8.7500E+00    1.0000E+00    0.0000E+00
  8.3333E+00    1.0000E+00    0.0000E+00
  7.5000E+00    1.0000E+00    0.0000E+00
  6.6667E+00    1.0000E+00    0.0000E+00
  5.8333E+00    1.0000E+00    0.0000E+00
  5.0000E+00    1.0000E+00    0.0000E+00
  4.1667E+00    1.0000E+00    0.0000E+00
  3.3333E+00    1.0000E+00    0.0000E+00
  2.5000E+00    1.0000E+00    0.0000E+00
  1.6667E+00    1.0000E+00    0.0000E+00
  1.2500E+00    1.0000E+00    0.0000E+00
  8.3333E-01    1.0000E+00    0.0000E+00
  4.1667E-01    1.0000E+00    0.0000E+00
  0.0000E+00    1.0000E+00    0.0000E+00
  0.0000E+00    0.0000E+00    1.0000E-01
  8.3333E-01    0.0000E+00    1.0000E-01
  1.6667E+00    0.0000E+00    1.0000E-01
  2.5000E+00    0.0000E+00    1.0000E-01
  3.3333E+00    0.0000E+00    1.0000E-01
  3.7500E+00    0.0000E+00    1.0000E-01
  4.1667E+00    0.0000E+00    1.0000E-01
  4.5833E+00    0.0000E+00    1.0000E-01
  5.0000E+00    0.0000E+00    1.0000E-01
  5.4167E+00    0.0000E+00    1.0000E-01
  5.8333E+00    0.0000E+00    1.0000E-01
  6.2500E+00    0.0000E+00    1.0000E-01
  6.6667E+00    0.0000E+00    1.0000E-01
  7.5000E+00    0.0000E+00    1.0000E-01
  8.3333E+00    0.0000E+00    1.0000E-01
  9.1667E+00    0.0000E+00    1.0000E-01
  1.0000E+01    0.0000E+00    1.0000E-01
  1.0000E+01    1.0000E+00    1.0000E-01
  9.5833E+00    1.0000E+00    1.0000E-01
  9.1667E+00    1.0000E+00    1.0000E-01
  8.7500E+00    1.0000E+00    1.0000E-01
  8.3333E+00    1.0000E+00    1.0000E-01
  7.5000E+00    1.0000E+00    1.0000E-01
  6.6667E+00    1.0000E+00    1.0000E-01
  5.8333E+00    1.0000E+00    1.0000E-01
  5.0000E+00    1.0000E+00    1.0000E-01
  4.1667E+00    1.0000E+00    1.0000E-01
  3.3333E+00    1.0000E+00    1.0000E-01
  2.5000E+00    1.0000E+00    1.0000E-01
  1.6667E+00    1.0000E+00    1.0000E-01
  1.2500E+00    1.0000E+00    1.0000E-01
  8.3333E-01    1.0000E+00    1.0000E-01
  4.1667E-01    1.0000E+00    1.0000E-01
  0.0000E+00    1.0000E+00    1.0000E-01
CELLS          16        144 
          8           0           1          32          33          34          35          66          67 
          8           1           2          31          32          35          36          65          66 
          8           2           3          30          31          36          37          64          65 
          8           3           4          29          30          37          38          63          64 
          8           4           5          28          29          38          39          62          63 
          8           5           6          27          28          39          40          61          62 
          8           6           7          26          27          40          41          60          61 
          8           7           8          25          26          41          42          59          60 
          8           8           9          24          25          42          43          58          59 
          8           9          10          23          24          43          44          57          58 
          8          10          11          22          23          44          45          56          57 
          8          11          12          21          22          45          46          55          56 
          8          12          13          20          21          46          47          54          55 
          8          13          14          19          20          47          48          53          54 
          8          14          15          18          19          48          49          52          53 
          8          15          16          17          18          49          50          51          52 
CELL_TYPES     16
 12 
 12 
 12 
 12 
 12 
 12 
 12 
 12 
 12 
 12 
 12 
 12 
 12 
 12 
 12 
 12 
POINT_DATA            68  
VECTORS deplacement   float64  
  0.0000E+00    0.0000E+00    0.0000E+00
  6.0907E-03    2.2624E-03    9.8261E-02
 -2.9535E-02    7.8508E-04    3.7792E-01
 -1.3328E-01   -3.7609E-03    8.0425E-01
 -3.1507E-01   -1.5189E-02    1.3416E+00
 -4.3290E-01   -1.4390E-02    1.6449E+00
 -5.7066E-01   -1.4389E-02    1.9608E+00
 -7.2556E-01   -1.4412E-02    2.2886E+00
 -8.9616E-01   -1.4299E-02    2.6276E+00
 -1.0816E+00   -1.4101E-02    2.9768E+00
 -1.2810E+00   -1.3866E-02    3.3348E+00
 -1.4937E+00   -1.3600E-02    3.7006E+00
 -1.7184E+00   -1.3260E-02    4.0728E+00
 -2.1963E+00   -1.1740E-02    4.8291E+00
 -2.7026E+00   -1.0665E-02    5.5974E+00
 -3.2276E+00   -9.6964E-03    6.3725E+00
 -3.7614E+00   -8.7001E-03    7.1505E+00
 -3.7598E+00   -8.7667E-03    7.1483E+00
 -3.4931E+00   -9.3431E-03    6.7594E+00
 -3.2271E+00   -9.9638E-03    6.3708E+00
 -2.9628E+00   -1.0567E-02    5.9826E+00
 -2.7011E+00   -1.1074E-02    5.5951E+00
 -2.1937E+00   -1.2791E-02    4.8261E+00
 -1.7167E+00   -1.4081E-02    4.0699E+00
 -1.2798E+00   -1.5052E-02    3.3333E+00
 -8.9313E-01   -1.5851E-02    2.6251E+00
 -5.6591E-01   -1.6392E-02    1.9571E+00
 -3.0710E-01   -1.5969E-02    1.3448E+00
 -1.2455E-01   -1.2494E-02    8.1051E-01
 -1.9150E-02   -8.9315E-04    3.8162E-01
  7.6153E-04   -1.5434E-03    2.1598E-01
  7.2010E-03   -1.9518E-03    9.5318E-02
  5.0688E-03   -2.5241E-03    2.3433E-02
  0.0000E+00    0.0000E+00    0.0000E+00
  0.0000E+00    0.0000E+00    0.0000E+00
 -1.6959E-02   -2.2670E-03    9.5457E-02
 -7.2241E-02   -2.2020E-03    3.6829E-01
 -1.9107E-01   -6.1228E-03    7.8584E-01
 -3.8420E-01   -1.7093E-02    1.3139E+00
 -5.0612E-01   -1.6303E-02    1.6130E+00
 -6.4727E-01   -1.6005E-02    1.9250E+00
 -8.0515E-01   -1.5738E-02    2.2491E+00
 -9.7836E-01   -1.5448E-02    2.5845E+00
 -1.1661E+00   -1.5110E-02    2.9303E+00
 -1.3675E+00   -1.4737E-02    3.2851E+00
 -1.5818E+00   -1.4361E-02    3.6478E+00
 -1.8080E+00   -1.3977E-02    4.0172E+00
 -2.2877E+00   -1.2347E-02    4.7697E+00
 -2.7952E+00   -1.1027E-02    5.5351E+00
 -3.3208E+00   -9.7585E-03    6.3087E+00
 -3.8549E+00   -8.5254E-03    7.0862E+00
 -3.8532E+00   -8.4885E-03    7.0842E+00
 -3.5864E+00   -9.0245E-03    6.6955E+00
 -3.3203E+00   -9.5100E-03    6.3071E+00
 -3.0558E+00   -9.9941E-03    5.9194E+00
 -2.7938E+00   -1.0447E-02    5.5326E+00
 -2.2851E+00   -1.2016E-02    4.7666E+00
 -1.8061E+00   -1.3003E-02    4.0146E+00
 -1.3663E+00   -1.3579E-02    3.2833E+00
 -9.7558E-01   -1.3921E-02    2.5817E+00
 -6.4265E-01   -1.3954E-02    1.9212E+00
 -3.7588E-01   -1.2980E-02    1.3173E+00
 -1.8224E-01   -8.9846E-03    7.9209E-01
 -6.2469E-02    2.6417E-03    3.7171E-01
 -3.2817E-02    2.1899E-03    2.1009E-01
 -1.5505E-02    1.9474E-03    9.2635E-02
 -5.9504E-03    2.4766E-03    2.2677E-02
  0.0000E+00    0.0000E+00    0.0000E+00
