# vtk DataFile Version 3.0 
vtk output 
ASCII 
DATASET UNSTRUCTURED_GRID 
POINTS            68 float
  0.0000E+00    0.0000E+00    0.0000E+00
  8.3333E-01    0.0000E+00    0.0000E+00
  1.6667E+00    0.0000E+00    0.0000E+00
  2.5000E+00    0.0000E+00    0.0000E+00
  3.3333E+00    0.0000E+00    0.0000E+00
  3.7500E+00    0.0000E+00    0.0000E+00
  4.1667E+00    0.0000E+00    0.0000E+00
  4.5833E+00    0.0000E+00    0.0000E+00
  5.0000E+00    0.0000E+00    0.0000E+00
  5.4167E+00    0.0000E+00    0.0000E+00
  5.8333E+00    0.0000E+00    0.0000E+00
  6.2500E+00    0.0000E+00    0.0000E+00
  6.6667E+00    0.0000E+00    0.0000E+00
  7.5000E+00    0.0000E+00    0.0000E+00
  8.3333E+00    0.0000E+00    0.0000E+00
  9.1667E+00    0.0000E+00    0.0000E+00
  1.0000E+01    0.0000E+00    0.0000E+00
  1.0000E+01    1.0000E+00    0.0000E+00
  9.5833E+00    1.0000E+00    0.0000E+00
  9.1667E+00    1.0000E+00    0.0000E+00
  8.7500E+00    1.0000E+00    0.0000E+00
  8.3333E+00    1.0000E+00    0.0000E+00
  7.5000E+00    1.0000E+00    0.0000E+00
  6.6667E+00    1.0000E+00    0.0000E+00
  5.8333E+00    1.0000E+00    0.0000E+00
  5.0000E+00    1.0000E+00    0.0000E+00
  4.1667E+00    1.0000E+00    0.0000E+00
  3.3333E+00    1.0000E+00    0.0000E+00
  2.5000E+00    1.0000E+00    0.0000E+00
  1.6667E+00    1.0000E+00    0.0000E+00
  1.2500E+00    1.0000E+00    0.0000E+00
  8.3333E-01    1.0000E+00    0.0000E+00
  4.1667E-01    1.0000E+00    0.0000E+00
  0.0000E+00    1.0000E+00    0.0000E+00
  0.0000E+00    0.0000E+00    1.0000E-01
  8.3333E-01    0.0000E+00    1.0000E-01
  1.6667E+00    0.0000E+00    1.0000E-01
  2.5000E+00    0.0000E+00    1.0000E-01
  3.3333E+00    0.0000E+00    1.0000E-01
  3.7500E+00    0.0000E+00    1.0000E-01
  4.1667E+00    0.0000E+00    1.0000E-01
  4.5833E+00    0.0000E+00    1.0000E-01
  5.0000E+00    0.0000E+00    1.0000E-01
  5.4167E+00    0.0000E+00    1.0000E-01
  5.8333E+00    0.0000E+00    1.0000E-01
  6.2500E+00    0.0000E+00    1.0000E-01
  6.6667E+00    0.0000E+00    1.0000E-01
  7.5000E+00    0.0000E+00    1.0000E-01
  8.3333E+00    0.0000E+00    1.0000E-01
  9.1667E+00    0.0000E+00    1.0000E-01
  1.0000E+01    0.0000E+00    1.0000E-01
  1.0000E+01    1.0000E+00    1.0000E-01
  9.5833E+00    1.0000E+00    1.0000E-01
  9.1667E+00    1.0000E+00    1.0000E-01
  8.7500E+00    1.0000E+00    1.0000E-01
  8.3333E+00    1.0000E+00    1.0000E-01
  7.5000E+00    1.0000E+00    1.0000E-01
  6.6667E+00    1.0000E+00    1.0000E-01
  5.8333E+00    1.0000E+00    1.0000E-01
  5.0000E+00    1.0000E+00    1.0000E-01
  4.1667E+00    1.0000E+00    1.0000E-01
  3.3333E+00    1.0000E+00    1.0000E-01
  2.5000E+00    1.0000E+00    1.0000E-01
  1.6667E+00    1.0000E+00    1.0000E-01
  1.2500E+00    1.0000E+00    1.0000E-01
  8.3333E-01    1.0000E+00    1.0000E-01
  4.1667E-01    1.0000E+00    1.0000E-01
  0.0000E+00    1.0000E+00    1.0000E-01
CELLS          16        144 
          8           0           1          32          33          34          35          66          67 
          8           1           2          31          32          35          36          65          66 
          8           2           3          30          31          36          37          64          65 
          8           3           4          29          30          37          38          63          64 
          8           4           5          28          29          38          39          62          63 
          8           5           6          27          28          39          40          61          62 
          8           6           7          26          27          40          41          60          61 
          8           7           8          25          26          41          42          59          60 
          8           8           9          24          25          42          43          58          59 
          8           9          10          23          24          43          44          57          58 
          8          10          11          22          23          44          45          56          57 
          8          11          12          21          22          45          46          55          56 
          8          12          13          20          21          46          47          54          55 
          8          13          14          19          20          47          48          53          54 
          8          14          15          18          19          48          49          52          53 
          8          15          16          17          18          49          50          51          52 
CELL_TYPES     16
 12 
 12 
 12 
 12 
 12 
 12 
 12 
 12 
 12 
 12 
 12 
 12 
 12 
 12 
 12 
 12 
POINT_DATA            68  
VECTORS deplacement   float64  
  0.0000E+00    0.0000E+00    0.0000E+00
  4.0288E-03    1.0120E-03    4.2546E-02
 -1.9670E-04    5.4916E-04    1.6705E-01
 -1.9110E-02   -6.3005E-04    3.6521E-01
 -5.6498E-02   -3.6091E-03    6.2738E-01
 -8.1996E-02   -3.5102E-03    7.7981E-01
 -1.1330E-01   -3.6155E-03    9.4361E-01
 -1.4988E-01   -3.7528E-03    1.1180E+00
 -1.9146E-01   -3.8764E-03    1.3024E+00
 -2.3787E-01   -3.9970E-03    1.4962E+00
 -2.8898E-01   -4.1296E-03    1.6987E+00
 -3.4469E-01   -4.2698E-03    1.9093E+00
 -4.0481E-01   -4.3923E-03    2.1272E+00
 -5.3624E-01   -4.3272E-03    2.5791E+00
 -6.7902E-01   -4.4974E-03    3.0474E+00
 -8.2964E-01   -4.7431E-03    3.5263E+00
 -9.8423E-01   -4.9803E-03    4.0101E+00
 -9.8421E-01   -5.0177E-03    4.0103E+00
 -9.0695E-01   -4.9525E-03    3.7685E+00
 -8.3008E-01   -4.9168E-03    3.5272E+00
 -7.5395E-01   -4.8714E-03    3.2867E+00
 -6.7906E-01   -4.7816E-03    3.0477E+00
 -5.3602E-01   -4.9163E-03    2.5787E+00
 -4.0502E-01   -4.9220E-03    2.1273E+00
 -2.8921E-01   -4.8542E-03    1.6997E+00
 -1.9117E-01   -4.7849E-03    1.3026E+00
 -1.1259E-01   -4.7133E-03    9.4289E-01
 -5.4426E-02   -4.4628E-03    6.2811E-01
 -1.6691E-02   -3.4966E-03    3.6681E-01
  2.3608E-03   -5.9273E-04    1.6780E-01
  4.5166E-03   -7.5711E-04    9.4585E-02
  4.2178E-03   -8.5054E-04    4.1788E-02
  2.3647E-03   -1.0834E-03    1.0323E-02
  0.0000E+00    0.0000E+00    0.0000E+00
  0.0000E+00    0.0000E+00    0.0000E+00
 -6.0963E-03   -1.0187E-03    4.2010E-02
 -1.9731E-02   -9.5474E-04    1.6511E-01
 -4.6809E-02   -1.9436E-03    3.6129E-01
 -9.1324E-02   -4.8057E-03    6.2112E-01
 -1.1977E-01   -4.6843E-03    7.7240E-01
 -1.5375E-01   -4.6987E-03    9.3506E-01
 -1.9283E-01   -4.7366E-03    1.1083E+00
 -2.3674E-01   -4.7822E-03    1.2916E+00
 -2.8532E-01   -4.8294E-03    1.4842E+00
 -3.3844E-01   -4.8793E-03    1.6857E+00
 -3.9600E-01   -4.9475E-03    1.8952E+00
 -4.5777E-01   -5.0385E-03    2.1121E+00
 -5.9153E-01   -4.8962E-03    2.5625E+00
 -7.3597E-01   -4.9049E-03    3.0296E+00
 -8.8753E-01   -4.9498E-03    3.5078E+00
 -1.0424E+00   -5.0264E-03    3.9914E+00
 -1.0423E+00   -4.9934E-03    3.9917E+00
 -9.6493E-01   -4.9011E-03    3.7500E+00
 -8.8790E-01   -4.7785E-03    3.5088E+00
 -8.1149E-01   -4.6612E-03    3.2685E+00
 -7.3615E-01   -4.5402E-03    3.0298E+00
 -5.9131E-01   -4.5944E-03    2.5620E+00
 -4.5785E-01   -4.4338E-03    2.1122E+00
 -3.3875E-01   -4.1601E-03    1.6865E+00
 -2.3663E-01   -3.8733E-03    1.2916E+00
 -1.5313E-01   -3.5804E-03    9.3430E-01
 -8.9086E-02   -3.1109E-03    6.2190E-01
 -4.4380E-02   -1.9594E-03    3.6288E-01
 -1.7369E-02    1.0053E-03    1.6583E-01
 -1.0522E-02    8.8761E-04    9.3433E-02
 -5.8492E-03    8.5378E-04    4.1266E-02
 -2.5481E-03    1.0791E-03    1.0175E-02
  0.0000E+00    0.0000E+00    0.0000E+00
