# vtk DataFile Version 3.0 
vtk output 
ASCII 
DATASET UNSTRUCTURED_GRID 
POINTS            68 float
  0.0000E+00    0.0000E+00    0.0000E+00
  8.3333E-01    0.0000E+00    0.0000E+00
  1.6667E+00    0.0000E+00    0.0000E+00
  2.5000E+00    0.0000E+00    0.0000E+00
  3.3333E+00    0.0000E+00    0.0000E+00
  3.7500E+00    0.0000E+00    0.0000E+00
  4.1667E+00    0.0000E+00    0.0000E+00
  4.5833E+00    0.0000E+00    0.0000E+00
  5.0000E+00    0.0000E+00    0.0000E+00
  5.4167E+00    0.0000E+00    0.0000E+00
  5.8333E+00    0.0000E+00    0.0000E+00
  6.2500E+00    0.0000E+00    0.0000E+00
  6.6667E+00    0.0000E+00    0.0000E+00
  7.5000E+00    0.0000E+00    0.0000E+00
  8.3333E+00    0.0000E+00    0.0000E+00
  9.1667E+00    0.0000E+00    0.0000E+00
  1.0000E+01    0.0000E+00    0.0000E+00
  1.0000E+01    1.0000E+00    0.0000E+00
  9.5833E+00    1.0000E+00    0.0000E+00
  9.1667E+00    1.0000E+00    0.0000E+00
  8.7500E+00    1.0000E+00    0.0000E+00
  8.3333E+00    1.0000E+00    0.0000E+00
  7.5000E+00    1.0000E+00    0.0000E+00
  6.6667E+00    1.0000E+00    0.0000E+00
  5.8333E+00    1.0000E+00    0.0000E+00
  5.0000E+00    1.0000E+00    0.0000E+00
  4.1667E+00    1.0000E+00    0.0000E+00
  3.3333E+00    1.0000E+00    0.0000E+00
  2.5000E+00    1.0000E+00    0.0000E+00
  1.6667E+00    1.0000E+00    0.0000E+00
  1.2500E+00    1.0000E+00    0.0000E+00
  8.3333E-01    1.0000E+00    0.0000E+00
  4.1667E-01    1.0000E+00    0.0000E+00
  0.0000E+00    1.0000E+00    0.0000E+00
  0.0000E+00    0.0000E+00    1.0000E-01
  8.3333E-01    0.0000E+00    1.0000E-01
  1.6667E+00    0.0000E+00    1.0000E-01
  2.5000E+00    0.0000E+00    1.0000E-01
  3.3333E+00    0.0000E+00    1.0000E-01
  3.7500E+00    0.0000E+00    1.0000E-01
  4.1667E+00    0.0000E+00    1.0000E-01
  4.5833E+00    0.0000E+00    1.0000E-01
  5.0000E+00    0.0000E+00    1.0000E-01
  5.4167E+00    0.0000E+00    1.0000E-01
  5.8333E+00    0.0000E+00    1.0000E-01
  6.2500E+00    0.0000E+00    1.0000E-01
  6.6667E+00    0.0000E+00    1.0000E-01
  7.5000E+00    0.0000E+00    1.0000E-01
  8.3333E+00    0.0000E+00    1.0000E-01
  9.1667E+00    0.0000E+00    1.0000E-01
  1.0000E+01    0.0000E+00    1.0000E-01
  1.0000E+01    1.0000E+00    1.0000E-01
  9.5833E+00    1.0000E+00    1.0000E-01
  9.1667E+00    1.0000E+00    1.0000E-01
  8.7500E+00    1.0000E+00    1.0000E-01
  8.3333E+00    1.0000E+00    1.0000E-01
  7.5000E+00    1.0000E+00    1.0000E-01
  6.6667E+00    1.0000E+00    1.0000E-01
  5.8333E+00    1.0000E+00    1.0000E-01
  5.0000E+00    1.0000E+00    1.0000E-01
  4.1667E+00    1.0000E+00    1.0000E-01
  3.3333E+00    1.0000E+00    1.0000E-01
  2.5000E+00    1.0000E+00    1.0000E-01
  1.6667E+00    1.0000E+00    1.0000E-01
  1.2500E+00    1.0000E+00    1.0000E-01
  8.3333E-01    1.0000E+00    1.0000E-01
  4.1667E-01    1.0000E+00    1.0000E-01
  0.0000E+00    1.0000E+00    1.0000E-01
CELLS          16        144 
          8           0           1          32          33          34          35          66          67 
          8           1           2          31          32          35          36          65          66 
          8           2           3          30          31          36          37          64          65 
          8           3           4          29          30          37          38          63          64 
          8           4           5          28          29          38          39          62          63 
          8           5           6          27          28          39          40          61          62 
          8           6           7          26          27          40          41          60          61 
          8           7           8          25          26          41          42          59          60 
          8           8           9          24          25          42          43          58          59 
          8           9          10          23          24          43          44          57          58 
          8          10          11          22          23          44          45          56          57 
          8          11          12          21          22          45          46          55          56 
          8          12          13          20          21          46          47          54          55 
          8          13          14          19          20          47          48          53          54 
          8          14          15          18          19          48          49          52          53 
          8          15          16          17          18          49          50          51          52 
CELL_TYPES     16
 12 
 12 
 12 
 12 
 12 
 12 
 12 
 12 
 12 
 12 
 12 
 12 
 12 
 12 
 12 
 12 
POINT_DATA            68  
VECTORS deplacement   float64  
  0.0000E+00    0.0000E+00    0.0000E+00
  6.0447E-03    2.1355E-03    9.2441E-02
 -2.5053E-02    7.6492E-04    3.5658E-01
 -1.1754E-01   -3.4353E-03    7.6162E-01
 -2.8131E-01   -1.4023E-02    1.2754E+00
 -3.8801E-01   -1.3332E-02    1.5664E+00
 -5.1345E-01   -1.3374E-02    1.8708E+00
 -6.5513E-01   -1.3448E-02    2.1875E+00
 -8.1173E-01   -1.3404E-02    2.5158E+00
 -9.8246E-01   -1.3287E-02    2.8547E+00
 -1.1666E+00   -1.3144E-02    3.2030E+00
 -1.3634E+00   -1.2979E-02    3.5595E+00
 -1.5719E+00   -1.2747E-02    3.9228E+00
 -2.0167E+00   -1.1463E-02    4.6626E+00
 -2.4891E+00   -1.0632E-02    5.4156E+00
 -2.9799E+00   -9.9142E-03    6.1762E+00
 -3.4795E+00   -9.1724E-03    6.9401E+00
 -3.4782E+00   -9.2367E-03    6.9383E+00
 -3.2285E+00   -9.6861E-03    6.5565E+00
 -2.9797E+00   -1.0180E-02    6.1749E+00
 -2.7325E+00   -1.0657E-02    5.7939E+00
 -2.4879E+00   -1.1038E-02    5.4137E+00
 -2.0145E+00   -1.2504E-02    4.6599E+00
 -1.5706E+00   -1.3559E-02    3.9203E+00
 -1.1657E+00   -1.4316E-02    3.2019E+00
 -8.0918E-01   -1.4926E-02    2.5137E+00
 -5.0932E-01   -1.5321E-02    1.8675E+00
 -2.7393E-01   -1.4848E-02    1.2783E+00
 -1.0938E-01   -1.1582E-02    7.6730E-01
 -1.5512E-02   -8.7794E-04    3.5986E-01
  1.6956E-03   -1.4745E-03    2.0350E-01
  7.0186E-03   -1.8390E-03    8.9805E-02
  4.8060E-03   -2.3711E-03    2.2093E-02
  0.0000E+00    0.0000E+00    0.0000E+00
  0.0000E+00    0.0000E+00    0.0000E+00
 -1.5677E-02   -2.1434E-03    8.9954E-02
 -6.5528E-02   -2.1033E-03    3.4797E-01
 -1.7265E-01   -5.7372E-03    7.4504E-01
 -3.4765E-01   -1.5910E-02    1.2502E+00
 -4.5848E-01   -1.5223E-02    1.5374E+00
 -5.8739E-01   -1.4993E-02    1.8381E+00
 -7.3213E-01   -1.4799E-02    2.1513E+00
 -8.9144E-01   -1.4586E-02    2.4762E+00
 -1.0646E+00   -1.4334E-02    2.8118E+00
 -1.2508E+00   -1.4055E-02    3.1570E+00
 -1.4494E+00   -1.3778E-02    3.5105E+00
 -1.6594E+00   -1.3502E-02    3.8712E+00
 -2.1062E+00   -1.2107E-02    4.6072E+00
 -2.5799E+00   -1.1031E-02    5.3574E+00
 -3.0714E+00   -1.0013E-02    6.1165E+00
 -3.5712E+00   -9.0334E-03    6.8799E+00
 -3.5698E+00   -8.9939E-03    6.8783E+00
 -3.3201E+00   -9.4029E-03    6.4966E+00
 -3.0712E+00   -9.7620E-03    6.1154E+00
 -2.8238E+00   -1.0121E-02    5.7348E+00
 -2.5789E+00   -1.0449E-02    5.3552E+00
 -2.1040E+00   -1.1772E-02    4.6045E+00
 -1.6580E+00   -1.2532E-02    3.8689E+00
 -1.2500E+00   -1.2907E-02    3.1556E+00
 -8.8914E-01   -1.3082E-02    2.4738E+00
 -5.8339E-01   -1.2997E-02    1.8346E+00
 -3.3994E-01   -1.2011E-02    1.2534E+00
 -1.6440E-01   -8.2662E-03    7.5072E-01
 -5.6550E-02    2.4691E-03    3.5102E-01
 -3.0035E-02    2.0514E-03    1.9826E-01
 -1.4402E-02    1.8374E-03    8.7420E-02
 -5.5967E-03    2.3321E-03    2.1420E-02
  0.0000E+00    0.0000E+00    0.0000E+00
