# vtk DataFile Version 3.0 
vtk output 
ASCII 
DATASET UNSTRUCTURED_GRID 
POINTS            68 float
  0.0000E+00    0.0000E+00    0.0000E+00
  8.3333E-01    0.0000E+00    0.0000E+00
  1.6667E+00    0.0000E+00    0.0000E+00
  2.5000E+00    0.0000E+00    0.0000E+00
  3.3333E+00    0.0000E+00    0.0000E+00
  3.7500E+00    0.0000E+00    0.0000E+00
  4.1667E+00    0.0000E+00    0.0000E+00
  4.5833E+00    0.0000E+00    0.0000E+00
  5.0000E+00    0.0000E+00    0.0000E+00
  5.4167E+00    0.0000E+00    0.0000E+00
  5.8333E+00    0.0000E+00    0.0000E+00
  6.2500E+00    0.0000E+00    0.0000E+00
  6.6667E+00    0.0000E+00    0.0000E+00
  7.5000E+00    0.0000E+00    0.0000E+00
  8.3333E+00    0.0000E+00    0.0000E+00
  9.1667E+00    0.0000E+00    0.0000E+00
  1.0000E+01    0.0000E+00    0.0000E+00
  1.0000E+01    1.0000E+00    0.0000E+00
  9.5833E+00    1.0000E+00    0.0000E+00
  9.1667E+00    1.0000E+00    0.0000E+00
  8.7500E+00    1.0000E+00    0.0000E+00
  8.3333E+00    1.0000E+00    0.0000E+00
  7.5000E+00    1.0000E+00    0.0000E+00
  6.6667E+00    1.0000E+00    0.0000E+00
  5.8333E+00    1.0000E+00    0.0000E+00
  5.0000E+00    1.0000E+00    0.0000E+00
  4.1667E+00    1.0000E+00    0.0000E+00
  3.3333E+00    1.0000E+00    0.0000E+00
  2.5000E+00    1.0000E+00    0.0000E+00
  1.6667E+00    1.0000E+00    0.0000E+00
  1.2500E+00    1.0000E+00    0.0000E+00
  8.3333E-01    1.0000E+00    0.0000E+00
  4.1667E-01    1.0000E+00    0.0000E+00
  0.0000E+00    1.0000E+00    0.0000E+00
  0.0000E+00    0.0000E+00    1.0000E-01
  8.3333E-01    0.0000E+00    1.0000E-01
  1.6667E+00    0.0000E+00    1.0000E-01
  2.5000E+00    0.0000E+00    1.0000E-01
  3.3333E+00    0.0000E+00    1.0000E-01
  3.7500E+00    0.0000E+00    1.0000E-01
  4.1667E+00    0.0000E+00    1.0000E-01
  4.5833E+00    0.0000E+00    1.0000E-01
  5.0000E+00    0.0000E+00    1.0000E-01
  5.4167E+00    0.0000E+00    1.0000E-01
  5.8333E+00    0.0000E+00    1.0000E-01
  6.2500E+00    0.0000E+00    1.0000E-01
  6.6667E+00    0.0000E+00    1.0000E-01
  7.5000E+00    0.0000E+00    1.0000E-01
  8.3333E+00    0.0000E+00    1.0000E-01
  9.1667E+00    0.0000E+00    1.0000E-01
  1.0000E+01    0.0000E+00    1.0000E-01
  1.0000E+01    1.0000E+00    1.0000E-01
  9.5833E+00    1.0000E+00    1.0000E-01
  9.1667E+00    1.0000E+00    1.0000E-01
  8.7500E+00    1.0000E+00    1.0000E-01
  8.3333E+00    1.0000E+00    1.0000E-01
  7.5000E+00    1.0000E+00    1.0000E-01
  6.6667E+00    1.0000E+00    1.0000E-01
  5.8333E+00    1.0000E+00    1.0000E-01
  5.0000E+00    1.0000E+00    1.0000E-01
  4.1667E+00    1.0000E+00    1.0000E-01
  3.3333E+00    1.0000E+00    1.0000E-01
  2.5000E+00    1.0000E+00    1.0000E-01
  1.6667E+00    1.0000E+00    1.0000E-01
  1.2500E+00    1.0000E+00    1.0000E-01
  8.3333E-01    1.0000E+00    1.0000E-01
  4.1667E-01    1.0000E+00    1.0000E-01
  0.0000E+00    1.0000E+00    1.0000E-01
CELLS          16        144 
          8           0           1          32          33          34          35          66          67 
          8           1           2          31          32          35          36          65          66 
          8           2           3          30          31          36          37          64          65 
          8           3           4          29          30          37          38          63          64 
          8           4           5          28          29          38          39          62          63 
          8           5           6          27          28          39          40          61          62 
          8           6           7          26          27          40          41          60          61 
          8           7           8          25          26          41          42          59          60 
          8           8           9          24          25          42          43          58          59 
          8           9          10          23          24          43          44          57          58 
          8          10          11          22          23          44          45          56          57 
          8          11          12          21          22          45          46          55          56 
          8          12          13          20          21          46          47          54          55 
          8          13          14          19          20          47          48          53          54 
          8          14          15          18          19          48          49          52          53 
          8          15          16          17          18          49          50          51          52 
CELL_TYPES     16
 12 
 12 
 12 
 12 
 12 
 12 
 12 
 12 
 12 
 12 
 12 
 12 
 12 
 12 
 12 
 12 
POINT_DATA            68  
VECTORS deplacement   float64  
  0.0000E+00    0.0000E+00    0.0000E+00
  1.7150E-03    3.7293E-04    1.5491E-02
  2.2655E-03    2.5391E-04    6.1076E-02
  7.0226E-04    6.9432E-05    1.3428E-01
 -3.5170E-03   -3.6159E-04    2.3220E-01
 -6.6463E-03   -3.5476E-04    2.8950E-01
 -1.0641E-02   -3.8114E-04    3.5156E-01
 -1.5428E-02   -4.1414E-04    4.1809E-01
 -2.0971E-02   -4.4503E-04    4.8886E-01
 -2.7253E-02   -4.7646E-04    5.6364E-01
 -3.4255E-02   -5.1185E-04    6.4219E-01
 -4.1969E-02   -5.4803E-04    7.2429E-01
 -5.0384E-02   -5.7729E-04    8.0964E-01
 -6.9083E-02   -5.9094E-04    9.8781E-01
 -8.9648E-02   -6.5230E-04    1.1736E+00
 -1.1156E-01   -7.3115E-04    1.3644E+00
 -1.3420E-01   -8.0439E-04    1.5577E+00
 -1.3423E-01   -8.1874E-04    1.5579E+00
 -1.2290E-01   -8.0341E-04    1.4613E+00
 -1.1165E-01   -7.9982E-04    1.3650E+00
 -1.0054E-01   -7.9279E-04    1.2691E+00
 -8.9650E-02   -7.7427E-04    1.1739E+00
 -6.9068E-02   -7.8858E-04    9.8779E-01
 -5.0459E-02   -7.9405E-04    8.0987E-01
 -3.4294E-02   -7.9403E-04    6.4272E-01
 -2.0925E-02   -7.9669E-04    4.8905E-01
 -1.0546E-02   -8.0196E-04    3.5141E-01
 -3.2405E-03   -7.8413E-04    2.3237E-01
  1.0497E-03   -6.6365E-04    1.3473E-01
  2.6411E-03   -2.6463E-04    6.1261E-02
  2.3624E-03   -2.9091E-04    3.4524E-02
  1.7368E-03   -3.1037E-04    1.5262E-02
  8.8989E-04   -3.9452E-04    3.7731E-03
  0.0000E+00    0.0000E+00    0.0000E+00
  0.0000E+00    0.0000E+00    0.0000E+00
 -1.9912E-03   -3.7398E-04    1.5419E-02
 -4.9421E-03   -3.1205E-04    6.0815E-02
 -9.6207E-03   -4.3390E-04    1.3375E-01
 -1.6646E-02   -8.3245E-04    2.3133E-01
 -2.0964E-02   -8.1397E-04    2.8847E-01
 -2.6063E-02   -8.1137E-04    3.5036E-01
 -3.1895E-02   -8.1177E-04    4.1672E-01
 -3.8429E-02   -8.1503E-04    4.8732E-01
 -4.5644E-02   -8.1906E-04    5.6193E-01
 -5.3526E-02   -8.2271E-04    6.4032E-01
 -6.2061E-02   -8.3083E-04    7.2225E-01
 -7.1216E-02   -8.4786E-04    8.0744E-01
 -9.0980E-02   -8.3085E-04    9.8538E-01
 -1.1232E-01   -8.2869E-04    1.1710E+00
 -1.3467E-01   -8.2808E-04    1.3617E+00
 -1.5746E-01   -8.3747E-04    1.5550E+00
 -1.5742E-01   -8.2373E-04    1.5552E+00
 -1.4606E-01   -7.9768E-04    1.4586E+00
 -1.3473E-01   -7.5984E-04    1.3623E+00
 -1.2348E-01   -7.2487E-04    1.2664E+00
 -1.1238E-01   -6.9417E-04    1.1712E+00
 -9.0966E-02   -6.7769E-04    9.8536E-01
 -7.1229E-02   -6.1936E-04    8.0769E-01
 -5.3601E-02   -5.4140E-04    6.4084E-01
 -3.8455E-02   -4.6326E-04    4.8750E-01
 -2.6004E-02   -3.8755E-04    3.5021E-01
 -1.6306E-02   -2.9114E-04    2.3151E-01
 -9.2724E-03   -1.0602E-04    1.3419E-01
 -4.6294E-03    3.2250E-04    6.0995E-02
 -3.1633E-03    3.0857E-04    3.4369E-02
 -1.9568E-03    3.1093E-04    1.5192E-02
 -9.1486E-04    3.9406E-04    3.7531E-03
  0.0000E+00    0.0000E+00    0.0000E+00
