# vtk DataFile Version 3.0 
vtk output 
ASCII 
DATASET UNSTRUCTURED_GRID 
POINTS            68 float
  0.0000E+00    0.0000E+00    0.0000E+00
  8.3333E-01    0.0000E+00    0.0000E+00
  1.6667E+00    0.0000E+00    0.0000E+00
  2.5000E+00    0.0000E+00    0.0000E+00
  3.3333E+00    0.0000E+00    0.0000E+00
  3.7500E+00    0.0000E+00    0.0000E+00
  4.1667E+00    0.0000E+00    0.0000E+00
  4.5833E+00    0.0000E+00    0.0000E+00
  5.0000E+00    0.0000E+00    0.0000E+00
  5.4167E+00    0.0000E+00    0.0000E+00
  5.8333E+00    0.0000E+00    0.0000E+00
  6.2500E+00    0.0000E+00    0.0000E+00
  6.6667E+00    0.0000E+00    0.0000E+00
  7.5000E+00    0.0000E+00    0.0000E+00
  8.3333E+00    0.0000E+00    0.0000E+00
  9.1667E+00    0.0000E+00    0.0000E+00
  1.0000E+01    0.0000E+00    0.0000E+00
  1.0000E+01    1.0000E+00    0.0000E+00
  9.5833E+00    1.0000E+00    0.0000E+00
  9.1667E+00    1.0000E+00    0.0000E+00
  8.7500E+00    1.0000E+00    0.0000E+00
  8.3333E+00    1.0000E+00    0.0000E+00
  7.5000E+00    1.0000E+00    0.0000E+00
  6.6667E+00    1.0000E+00    0.0000E+00
  5.8333E+00    1.0000E+00    0.0000E+00
  5.0000E+00    1.0000E+00    0.0000E+00
  4.1667E+00    1.0000E+00    0.0000E+00
  3.3333E+00    1.0000E+00    0.0000E+00
  2.5000E+00    1.0000E+00    0.0000E+00
  1.6667E+00    1.0000E+00    0.0000E+00
  1.2500E+00    1.0000E+00    0.0000E+00
  8.3333E-01    1.0000E+00    0.0000E+00
  4.1667E-01    1.0000E+00    0.0000E+00
  0.0000E+00    1.0000E+00    0.0000E+00
  0.0000E+00    0.0000E+00    1.0000E-01
  8.3333E-01    0.0000E+00    1.0000E-01
  1.6667E+00    0.0000E+00    1.0000E-01
  2.5000E+00    0.0000E+00    1.0000E-01
  3.3333E+00    0.0000E+00    1.0000E-01
  3.7500E+00    0.0000E+00    1.0000E-01
  4.1667E+00    0.0000E+00    1.0000E-01
  4.5833E+00    0.0000E+00    1.0000E-01
  5.0000E+00    0.0000E+00    1.0000E-01
  5.4167E+00    0.0000E+00    1.0000E-01
  5.8333E+00    0.0000E+00    1.0000E-01
  6.2500E+00    0.0000E+00    1.0000E-01
  6.6667E+00    0.0000E+00    1.0000E-01
  7.5000E+00    0.0000E+00    1.0000E-01
  8.3333E+00    0.0000E+00    1.0000E-01
  9.1667E+00    0.0000E+00    1.0000E-01
  1.0000E+01    0.0000E+00    1.0000E-01
  1.0000E+01    1.0000E+00    1.0000E-01
  9.5833E+00    1.0000E+00    1.0000E-01
  9.1667E+00    1.0000E+00    1.0000E-01
  8.7500E+00    1.0000E+00    1.0000E-01
  8.3333E+00    1.0000E+00    1.0000E-01
  7.5000E+00    1.0000E+00    1.0000E-01
  6.6667E+00    1.0000E+00    1.0000E-01
  5.8333E+00    1.0000E+00    1.0000E-01
  5.0000E+00    1.0000E+00    1.0000E-01
  4.1667E+00    1.0000E+00    1.0000E-01
  3.3333E+00    1.0000E+00    1.0000E-01
  2.5000E+00    1.0000E+00    1.0000E-01
  1.6667E+00    1.0000E+00    1.0000E-01
  1.2500E+00    1.0000E+00    1.0000E-01
  8.3333E-01    1.0000E+00    1.0000E-01
  4.1667E-01    1.0000E+00    1.0000E-01
  0.0000E+00    1.0000E+00    1.0000E-01
CELLS          16        144 
          8           0           1          32          33          34          35          66          67 
          8           1           2          31          32          35          36          65          66 
          8           2           3          30          31          36          37          64          65 
          8           3           4          29          30          37          38          63          64 
          8           4           5          28          29          38          39          62          63 
          8           5           6          27          28          39          40          61          62 
          8           6           7          26          27          40          41          60          61 
          8           7           8          25          26          41          42          59          60 
          8           8           9          24          25          42          43          58          59 
          8           9          10          23          24          43          44          57          58 
          8          10          11          22          23          44          45          56          57 
          8          11          12          21          22          45          46          55          56 
          8          12          13          20          21          46          47          54          55 
          8          13          14          19          20          47          48          53          54 
          8          14          15          18          19          48          49          52          53 
          8          15          16          17          18          49          50          51          52 
CELL_TYPES     16
 12 
 12 
 12 
 12 
 12 
 12 
 12 
 12 
 12 
 12 
 12 
 12 
 12 
 12 
 12 
 12 
POINT_DATA            68  
VECTORS deplacement   float64  
  0.0000E+00    0.0000E+00    0.0000E+00
  5.2157E-03    1.4857E-03    6.3192E-02
 -7.4119E-03    6.6858E-04    2.4670E-01
 -5.1036E-02   -1.6853E-03    5.3521E-01
 -1.3271E-01   -7.6692E-03    9.1146E-01
 -1.8728E-01   -7.4004E-03    1.1283E+00
 -2.5314E-01   -7.5372E-03    1.3590E+00
 -3.2911E-01   -7.7196E-03    1.6026E+00
 -4.1452E-01   -7.8600E-03    1.8583E+00
 -5.0900E-01   -7.9805E-03    2.1252E+00
 -6.1223E-01   -8.1078E-03    2.4023E+00
 -7.2391E-01   -8.2404E-03    2.6888E+00
 -8.4360E-01   -8.3405E-03    2.9834E+00
 -1.1027E+00   -7.9694E-03    3.5901E+00
 -1.3817E+00   -7.9787E-03    4.2142E+00
 -1.6743E+00   -8.1000E-03    4.8492E+00
 -1.9735E+00   -8.2097E-03    5.4892E+00
 -1.9732E+00   -8.2606E-03    5.4888E+00
 -1.8237E+00   -8.2758E-03    5.1690E+00
 -1.6748E+00   -8.3298E-03    4.8496E+00
 -1.5272E+00   -8.3699E-03    4.5310E+00
 -1.3816E+00   -8.3385E-03    4.2138E+00
 -1.1020E+00   -8.8186E-03    3.5889E+00
 -8.4358E-01   -9.0346E-03    2.9827E+00
 -6.1236E-01   -9.0863E-03    2.4028E+00
 -4.1367E-01   -9.1004E-03    1.8578E+00
 -2.5143E-01   -9.0623E-03    1.3575E+00
 -1.2853E-01   -8.6137E-03    9.1295E-01
 -4.6252E-02   -6.6773E-03    5.3821E-01
 -2.2019E-03   -7.4959E-04    2.4825E-01
  4.4458E-03   -1.0783E-03    1.4002E-01
  5.6489E-03   -1.2621E-03    6.1823E-02
  3.4180E-03   -1.6121E-03    1.5253E-02
  0.0000E+00    0.0000E+00    0.0000E+00
  0.0000E+00    0.0000E+00    0.0000E+00
 -9.7509E-03   -1.4969E-03    6.2018E-02
 -3.5964E-02   -1.4703E-03    2.4251E-01
 -9.0975E-02   -3.5050E-03    5.2687E-01
 -1.8217E-01   -9.2691E-03    8.9836E-01
 -2.4053E-01   -8.9826E-03    1.1129E+00
 -3.0975E-01   -8.9644E-03    1.3414E+00
 -3.8878E-01   -8.9833E-03    1.5829E+00
 -4.7701E-01   -9.0061E-03    1.8364E+00
 -5.7406E-01   -9.0221E-03    2.1011E+00
 -6.7962E-01   -9.0365E-03    2.3762E+00
 -7.9341E-01   -9.0726E-03    2.6607E+00
 -9.1494E-01   -9.1312E-03    2.9535E+00
 -1.1766E+00   -8.6592E-03    3.5575E+00
 -1.4574E+00   -8.4541E-03    4.1796E+00
 -1.7509E+00   -8.3105E-03    4.8135E+00
 -2.0504E+00   -8.2093E-03    5.4531E+00
 -2.0500E+00   -8.1679E-03    5.4529E+00
 -1.9004E+00   -8.1475E-03    5.1331E+00
 -1.7514E+00   -8.0858E-03    4.8139E+00
 -1.6034E+00   -8.0282E-03    4.4957E+00
 -1.4573E+00   -7.9541E-03    4.1791E+00
 -1.1758E+00   -8.3221E-03    3.5563E+00
 -9.1477E-01   -8.3072E-03    2.9530E+00
 -6.7986E-01   -8.0683E-03    2.3765E+00
 -4.7638E-01   -7.7673E-03    1.8357E+00
 -3.0816E-01   -7.4009E-03    1.3398E+00
 -1.7776E-01   -6.6185E-03    8.9998E-01
 -8.6160E-02   -4.3898E-03    5.2987E-01
 -3.1085E-02    1.5971E-03    2.4397E-01
 -1.7665E-02    1.3594E-03    1.3751E-01
 -9.1874E-03    1.2665E-03    6.0686E-02
 -3.8099E-03    1.5998E-03    1.4930E-02
  0.0000E+00    0.0000E+00    0.0000E+00
